# E (eV) pdosup(E)  pdosdw(E) 
-55.818 -0.131E-05 -0.148E-11
-55.808 -0.158E-05 -0.209E-11
-55.798 -0.191E-05 -0.293E-11
-55.788 -0.230E-05 -0.410E-11
-55.778 -0.276E-05 -0.572E-11
-55.768 -0.330E-05 -0.796E-11
-55.758 -0.393E-05 -0.110E-10
-55.748 -0.467E-05 -0.153E-10
-55.738 -0.552E-05 -0.211E-10
-55.728 -0.652E-05 -0.290E-10
-55.718 -0.766E-05 -0.398E-10
-55.708 -0.898E-05 -0.545E-10
-55.698 -0.105E-04 -0.743E-10
-55.688 -0.122E-04 -0.101E-09
-55.678 -0.141E-04 -0.137E-09
-55.668 -0.163E-04 -0.185E-09
-55.658 -0.188E-04 -0.250E-09
-55.648 -0.215E-04 -0.336E-09
-55.638 -0.246E-04 -0.451E-09
-55.628 -0.280E-04 -0.603E-09
-55.618 -0.317E-04 -0.803E-09
-55.608 -0.358E-04 -0.107E-08
-55.598 -0.403E-04 -0.141E-08
-55.588 -0.451E-04 -0.187E-08
-55.578 -0.503E-04 -0.246E-08
-55.568 -0.558E-04 -0.324E-08
-55.558 -0.616E-04 -0.424E-08
-55.548 -0.678E-04 -0.554E-08
-55.538 -0.741E-04 -0.721E-08
-55.528 -0.807E-04 -0.936E-08
-55.518 -0.874E-04 -0.121E-07
-55.508 -0.941E-04 -0.156E-07
-55.498 -0.101E-03 -0.201E-07
-55.488 -0.107E-03 -0.258E-07
-55.478 -0.113E-03 -0.330E-07
-55.468 -0.119E-03 -0.421E-07
-55.458 -0.123E-03 -0.536E-07
-55.448 -0.127E-03 -0.679E-07
-55.438 -0.130E-03 -0.858E-07
-55.428 -0.131E-03 -0.108E-06
-55.418 -0.131E-03 -0.136E-06
-55.408 -0.128E-03 -0.170E-06
-55.398 -0.124E-03 -0.213E-06
-55.388 -0.116E-03 -0.265E-06
-55.378 -0.106E-03 -0.328E-06
-55.368 -0.924E-04 -0.406E-06
-55.358 -0.752E-04 -0.501E-06
-55.348 -0.540E-04 -0.616E-06
-55.338 -0.286E-04 -0.755E-06
-55.328  0.134E-05 -0.923E-06
-55.318  0.361E-04 -0.112E-05
-55.308  0.760E-04 -0.136E-05
-55.298  0.121E-03 -0.165E-05
-55.288  0.172E-03 -0.199E-05
-55.278  0.228E-03 -0.240E-05
-55.268  0.289E-03 -0.287E-05
-55.258  0.357E-03 -0.343E-05
-55.248  0.429E-03 -0.408E-05
-55.238  0.507E-03 -0.485E-05
-55.228  0.591E-03 -0.573E-05
-55.218  0.678E-03 -0.676E-05
-55.208  0.771E-03 -0.794E-05
-55.198  0.867E-03 -0.929E-05
-55.188  0.966E-03 -0.108E-04
-55.178  0.107E-02 -0.126E-04
-55.168  0.117E-02 -0.146E-04
-55.158  0.128E-02 -0.168E-04
-55.148  0.138E-02 -0.194E-04
-55.138  0.149E-02 -0.222E-04
-55.128  0.159E-02 -0.253E-04
-55.118  0.169E-02 -0.288E-04
-55.108  0.179E-02 -0.326E-04
-55.098  0.188E-02 -0.368E-04
-55.088  0.197E-02 -0.413E-04
-55.078  0.205E-02 -0.462E-04
-55.068  0.213E-02 -0.515E-04
-55.058  0.219E-02 -0.570E-04
-55.048  0.225E-02 -0.630E-04
-55.038  0.230E-02 -0.692E-04
-55.028  0.234E-02 -0.756E-04
-55.018  0.237E-02 -0.822E-04
-55.008  0.239E-02 -0.889E-04
-54.998  0.240E-02 -0.956E-04
-54.988  0.240E-02 -0.102E-03
-54.978  0.238E-02 -0.108E-03
-54.968  0.236E-02 -0.114E-03
-54.958  0.233E-02 -0.120E-03
-54.948  0.228E-02 -0.124E-03
-54.938  0.223E-02 -0.128E-03
-54.928  0.217E-02 -0.130E-03
-54.918  0.210E-02 -0.131E-03
-54.908  0.202E-02 -0.130E-03
-54.898  0.193E-02 -0.127E-03
-54.888  0.184E-02 -0.122E-03
-54.878  0.175E-02 -0.114E-03
-54.868  0.165E-02 -0.103E-03
-54.858  0.155E-02 -0.888E-04
-54.848  0.144E-02 -0.707E-04
-54.838  0.134E-02 -0.486E-04
-54.828  0.123E-02 -0.223E-04
-54.818  0.113E-02  0.876E-05
-54.808  0.102E-02  0.447E-04
-54.798  0.924E-03  0.857E-04
-54.788  0.826E-03  0.132E-03
-54.778  0.731E-03  0.184E-03
-54.768  0.641E-03  0.241E-03
-54.758  0.555E-03  0.304E-03
-54.748  0.474E-03  0.372E-03
-54.738  0.398E-03  0.446E-03
-54.728  0.328E-03  0.526E-03
-54.718  0.263E-03  0.610E-03
-54.708  0.203E-03  0.698E-03
-54.698  0.150E-03  0.792E-03
-54.688  0.101E-03  0.888E-03
-54.678  0.586E-04  0.988E-03
-54.668  0.209E-04  0.109E-02
-54.658 -0.119E-04  0.119E-02
-54.648 -0.399E-04  0.130E-02
-54.638 -0.634E-04  0.141E-02
-54.628 -0.829E-04  0.151E-02
-54.618 -0.985E-04  0.161E-02
-54.608 -0.111E-03  0.171E-02
-54.598 -0.120E-03  0.181E-02
-54.588 -0.126E-03  0.190E-02
-54.578 -0.130E-03  0.199E-02
-54.568 -0.131E-03  0.207E-02
-54.558 -0.131E-03  0.214E-02
-54.548 -0.129E-03  0.221E-02
-54.538 -0.126E-03  0.226E-02
-54.528 -0.122E-03  0.231E-02
-54.518 -0.116E-03  0.235E-02
-54.508 -0.111E-03  0.238E-02
-54.498 -0.104E-03  0.239E-02
-54.488 -0.980E-04  0.240E-02
-54.478 -0.913E-04  0.239E-02
-54.468 -0.846E-04  0.238E-02
-54.458 -0.779E-04  0.235E-02
-54.448 -0.714E-04  0.232E-02
-54.438 -0.651E-04  0.227E-02
-54.428 -0.591E-04  0.221E-02
-54.418 -0.534E-04  0.215E-02
-54.408 -0.480E-04  0.208E-02
-54.398 -0.430E-04  0.200E-02
-54.388 -0.384E-04  0.191E-02
-54.378 -0.341E-04  0.182E-02
-54.368 -0.301E-04  0.173E-02
-54.358 -0.265E-04  0.163E-02
-54.348 -0.233E-04  0.152E-02
-54.338 -0.203E-04  0.142E-02
-54.328 -0.177E-04  0.131E-02
-54.318 -0.154E-04  0.121E-02
-54.308 -0.133E-04  0.110E-02
-54.298 -0.114E-04  0.100E-02
-54.288 -0.982E-05  0.901E-03
-54.278 -0.840E-05  0.804E-03
-54.268 -0.716E-05  0.710E-03
-54.258 -0.608E-05  0.621E-03
-54.248 -0.515E-05  0.536E-03
-54.238 -0.434E-05  0.456E-03
-54.228 -0.365E-05  0.382E-03
-54.218 -0.306E-05  0.312E-03
-54.208 -0.256E-05  0.249E-03
-54.198 -0.213E-05  0.191E-03
-54.188 -0.177E-05  0.138E-03
-54.178 -0.146E-05  0.912E-04
-54.168 -0.120E-05  0.496E-04
-54.158 -0.990E-06  0.130E-04
-54.148 -0.811E-06 -0.186E-04
-54.138 -0.663E-06 -0.456E-04
-54.128 -0.539E-06 -0.682E-04
-54.118 -0.438E-06 -0.867E-04
-54.108 -0.354E-06 -0.102E-03
-54.098 -0.286E-06 -0.113E-03
-54.088 -0.230E-06 -0.121E-03
-54.078 -0.184E-06 -0.127E-03
-54.068 -0.147E-06 -0.130E-03
-54.058 -0.117E-06 -0.131E-03
-54.048 -0.932E-07 -0.131E-03
-54.038 -0.738E-07 -0.128E-03
-54.028 -0.583E-07 -0.125E-03
-54.018 -0.459E-07 -0.120E-03
-54.008 -0.360E-07 -0.115E-03
-53.998 -0.282E-07 -0.109E-03
-53.988 -0.220E-07 -0.103E-03
-53.978 -0.171E-07 -0.964E-04
-53.968 -0.133E-07 -0.897E-04
-53.958 -0.103E-07 -0.830E-04
-53.948 -0.791E-08 -0.764E-04
-53.938 -0.608E-08 -0.700E-04
-53.928 -0.466E-08 -0.637E-04
-53.918 -0.356E-08 -0.578E-04
-53.908 -0.271E-08 -0.521E-04
-53.898 -0.206E-08 -0.468E-04
-53.888 -0.156E-08 -0.419E-04
-53.878 -0.118E-08 -0.373E-04
-53.868 -0.889E-09 -0.331E-04
-53.858 -0.667E-09 -0.293E-04
-53.848 -0.500E-09 -0.258E-04
-53.838 -0.373E-09 -0.226E-04
-53.828 -0.278E-09 -0.197E-04
-53.818 -0.206E-09 -0.172E-04
-53.808 -0.153E-09 -0.149E-04
-53.798 -0.113E-09 -0.128E-04
-53.788 -0.829E-10 -0.111E-04
-53.778 -0.608E-10 -0.948E-05
-53.768 -0.445E-10 -0.810E-05
-53.758 -0.325E-10 -0.690E-05
-53.748 -0.236E-10 -0.585E-05
-53.738 -0.171E-10 -0.495E-05
-53.728 -0.124E-10 -0.417E-05
-53.718 -0.894E-11 -0.351E-05
-53.708 -0.643E-11 -0.294E-05
-53.698 -0.461E-11 -0.245E-05
-53.688 -0.330E-11 -0.204E-05
-53.678 -0.235E-11 -0.169E-05
-53.668 -0.167E-11 -0.140E-05
-53.658 -0.119E-11 -0.115E-05
-53.648 -0.839E-12 -0.946E-06
-53.638 -0.592E-12 -0.775E-06
-53.628 -0.416E-12 -0.632E-06
-53.618 -0.106E-13 -0.514E-06
-53.608  0.000E+00 -0.417E-06
-53.598  0.000E+00 -0.337E-06
-53.588  0.000E+00 -0.272E-06
-53.578  0.000E+00 -0.219E-06
-53.568  0.000E+00 -0.175E-06
-53.558  0.000E+00 -0.140E-06
-53.548  0.000E+00 -0.111E-06
-53.538  0.000E+00 -0.884E-07
-53.528  0.000E+00 -0.700E-07
-53.518  0.000E+00 -0.552E-07
-53.508  0.000E+00 -0.434E-07
-53.498  0.000E+00 -0.341E-07
-53.488  0.000E+00 -0.266E-07
-53.478  0.000E+00 -0.208E-07
-53.468  0.000E+00 -0.161E-07
-53.458  0.000E+00 -0.125E-07
-53.448  0.000E+00 -0.967E-08
-53.438  0.000E+00 -0.745E-08
-53.428  0.000E+00 -0.572E-08
-53.418  0.000E+00 -0.438E-08
-53.408  0.000E+00 -0.335E-08
-53.398  0.000E+00 -0.255E-08
-53.388  0.000E+00 -0.194E-08
-53.378  0.000E+00 -0.147E-08
-53.368  0.000E+00 -0.111E-08
-53.358  0.000E+00 -0.833E-09
-53.348  0.000E+00 -0.625E-09
-53.338  0.000E+00 -0.468E-09
-53.328  0.000E+00 -0.349E-09
-53.318  0.000E+00 -0.260E-09
-53.308  0.000E+00 -0.193E-09
-53.298  0.000E+00 -0.142E-09
-53.288  0.000E+00 -0.105E-09
-53.278  0.000E+00 -0.773E-10
-53.268  0.000E+00 -0.567E-10
-53.258  0.000E+00 -0.414E-10
-53.248  0.000E+00 -0.302E-10
-53.238  0.000E+00 -0.220E-10
-53.228  0.000E+00 -0.159E-10
-53.218  0.000E+00 -0.115E-10
-53.208  0.000E+00 -0.830E-11
-53.198  0.000E+00 -0.596E-11
-53.188  0.000E+00 -0.427E-11
-53.178  0.000E+00 -0.306E-11
-53.168  0.000E+00 -0.218E-11
-53.158  0.000E+00 -0.155E-11
-53.148  0.000E+00 -0.110E-11
-53.138  0.000E+00 -0.775E-12
-53.128  0.000E+00 -0.546E-12
-53.118  0.000E+00 -0.371E-12
-53.108  0.000E+00  0.000E+00
-53.098  0.000E+00  0.000E+00
-53.088  0.000E+00  0.000E+00
-53.078  0.000E+00  0.000E+00
-53.068  0.000E+00  0.000E+00
-53.058  0.000E+00  0.000E+00
-53.048  0.000E+00  0.000E+00
-53.038  0.000E+00  0.000E+00
-53.028  0.000E+00  0.000E+00
-53.018  0.000E+00  0.000E+00
-53.008  0.000E+00  0.000E+00
-52.998  0.000E+00  0.000E+00
-52.988  0.000E+00  0.000E+00
-52.978  0.000E+00  0.000E+00
-52.968  0.000E+00  0.000E+00
-52.958  0.000E+00  0.000E+00
-52.948  0.000E+00  0.000E+00
-52.938  0.000E+00  0.000E+00
-52.928  0.000E+00  0.000E+00
-52.918  0.000E+00  0.000E+00
-52.908  0.000E+00  0.000E+00
-52.898  0.000E+00  0.000E+00
-52.888  0.000E+00  0.000E+00
-52.878  0.000E+00  0.000E+00
-52.868  0.000E+00  0.000E+00
-52.858  0.000E+00  0.000E+00
-52.848  0.000E+00  0.000E+00
-52.838  0.000E+00  0.000E+00
-52.828  0.000E+00  0.000E+00
-52.818  0.000E+00  0.000E+00
-52.808  0.000E+00  0.000E+00
-52.798  0.000E+00  0.000E+00
-52.788  0.000E+00  0.000E+00
-52.778  0.000E+00  0.000E+00
-52.768  0.000E+00  0.000E+00
-52.758  0.000E+00  0.000E+00
-52.748  0.000E+00  0.000E+00
-52.738  0.000E+00  0.000E+00
-52.728  0.000E+00  0.000E+00
-52.718  0.000E+00  0.000E+00
-52.708  0.000E+00  0.000E+00
-52.698  0.000E+00  0.000E+00
-52.688  0.000E+00  0.000E+00
-52.678  0.000E+00  0.000E+00
-52.668  0.000E+00  0.000E+00
-52.658  0.000E+00  0.000E+00
-52.648  0.000E+00  0.000E+00
-52.638  0.000E+00  0.000E+00
-52.628  0.000E+00  0.000E+00
-52.618  0.000E+00  0.000E+00
-52.608  0.000E+00  0.000E+00
-52.598  0.000E+00  0.000E+00
-52.588  0.000E+00  0.000E+00
-52.578  0.000E+00  0.000E+00
-52.568  0.000E+00  0.000E+00
-52.558  0.000E+00  0.000E+00
-52.548  0.000E+00  0.000E+00
-52.538  0.000E+00  0.000E+00
-52.528  0.000E+00  0.000E+00
-52.518  0.000E+00  0.000E+00
-52.508  0.000E+00  0.000E+00
-52.498  0.000E+00  0.000E+00
-52.488  0.000E+00  0.000E+00
-52.478  0.000E+00  0.000E+00
-52.468  0.000E+00  0.000E+00
-52.458  0.000E+00  0.000E+00
-52.448  0.000E+00  0.000E+00
-52.438  0.000E+00  0.000E+00
-52.428  0.000E+00  0.000E+00
-52.418  0.000E+00  0.000E+00
-52.408  0.000E+00  0.000E+00
-52.398  0.000E+00  0.000E+00
-52.388  0.000E+00  0.000E+00
-52.378  0.000E+00  0.000E+00
-52.368  0.000E+00  0.000E+00
-52.358  0.000E+00  0.000E+00
-52.348  0.000E+00  0.000E+00
-52.338  0.000E+00  0.000E+00
-52.328  0.000E+00  0.000E+00
-52.318  0.000E+00  0.000E+00
-52.308  0.000E+00  0.000E+00
-52.298  0.000E+00  0.000E+00
-52.288  0.000E+00  0.000E+00
-52.278  0.000E+00  0.000E+00
-52.268  0.000E+00  0.000E+00
-52.258  0.000E+00  0.000E+00
-52.248  0.000E+00  0.000E+00
-52.238  0.000E+00  0.000E+00
-52.228  0.000E+00  0.000E+00
-52.218  0.000E+00  0.000E+00
-52.208  0.000E+00  0.000E+00
-52.198  0.000E+00  0.000E+00
-52.188  0.000E+00  0.000E+00
-52.178  0.000E+00  0.000E+00
-52.168  0.000E+00  0.000E+00
-52.158  0.000E+00  0.000E+00
-52.148  0.000E+00  0.000E+00
-52.138  0.000E+00  0.000E+00
-52.128  0.000E+00  0.000E+00
-52.118  0.000E+00  0.000E+00
-52.108  0.000E+00  0.000E+00
-52.098  0.000E+00  0.000E+00
-52.088  0.000E+00  0.000E+00
-52.078  0.000E+00  0.000E+00
-52.068  0.000E+00  0.000E+00
-52.058  0.000E+00  0.000E+00
-52.048  0.000E+00  0.000E+00
-52.038  0.000E+00  0.000E+00
-52.028  0.000E+00  0.000E+00
-52.018  0.000E+00  0.000E+00
-52.008  0.000E+00  0.000E+00
-51.998  0.000E+00  0.000E+00
-51.988  0.000E+00  0.000E+00
-51.978  0.000E+00  0.000E+00
-51.968  0.000E+00  0.000E+00
-51.958  0.000E+00  0.000E+00
-51.948  0.000E+00  0.000E+00
-51.938  0.000E+00  0.000E+00
-51.928  0.000E+00  0.000E+00
-51.918  0.000E+00  0.000E+00
-51.908  0.000E+00  0.000E+00
-51.898  0.000E+00  0.000E+00
-51.888  0.000E+00  0.000E+00
-51.878  0.000E+00  0.000E+00
-51.868  0.000E+00  0.000E+00
-51.858  0.000E+00  0.000E+00
-51.848  0.000E+00  0.000E+00
-51.838  0.000E+00  0.000E+00
-51.828  0.000E+00  0.000E+00
-51.818  0.000E+00  0.000E+00
-51.808  0.000E+00  0.000E+00
-51.798  0.000E+00  0.000E+00
-51.788  0.000E+00  0.000E+00
-51.778  0.000E+00  0.000E+00
-51.768  0.000E+00  0.000E+00
-51.758  0.000E+00  0.000E+00
-51.748  0.000E+00  0.000E+00
-51.738  0.000E+00  0.000E+00
-51.728  0.000E+00  0.000E+00
-51.718  0.000E+00  0.000E+00
-51.708  0.000E+00  0.000E+00
-51.698  0.000E+00  0.000E+00
-51.688  0.000E+00  0.000E+00
-51.678  0.000E+00  0.000E+00
-51.668  0.000E+00  0.000E+00
-51.658  0.000E+00  0.000E+00
-51.648  0.000E+00  0.000E+00
-51.638  0.000E+00  0.000E+00
-51.628  0.000E+00  0.000E+00
-51.618  0.000E+00  0.000E+00
-51.608  0.000E+00  0.000E+00
-51.598  0.000E+00  0.000E+00
-51.588  0.000E+00  0.000E+00
-51.578  0.000E+00  0.000E+00
-51.568  0.000E+00  0.000E+00
-51.558  0.000E+00  0.000E+00
-51.548  0.000E+00  0.000E+00
-51.538  0.000E+00  0.000E+00
-51.528  0.000E+00  0.000E+00
-51.518  0.000E+00  0.000E+00
-51.508  0.000E+00  0.000E+00
-51.498  0.000E+00  0.000E+00
-51.488  0.000E+00  0.000E+00
-51.478  0.000E+00  0.000E+00
-51.468  0.000E+00  0.000E+00
-51.458  0.000E+00  0.000E+00
-51.448  0.000E+00  0.000E+00
-51.438  0.000E+00  0.000E+00
-51.428  0.000E+00  0.000E+00
-51.418  0.000E+00  0.000E+00
-51.408  0.000E+00  0.000E+00
-51.398  0.000E+00  0.000E+00
-51.388  0.000E+00  0.000E+00
-51.378  0.000E+00  0.000E+00
-51.368  0.000E+00  0.000E+00
-51.358  0.000E+00  0.000E+00
-51.348  0.000E+00  0.000E+00
-51.338  0.000E+00  0.000E+00
-51.328  0.000E+00  0.000E+00
-51.318  0.000E+00  0.000E+00
-51.308  0.000E+00  0.000E+00
-51.298  0.000E+00  0.000E+00
-51.288  0.000E+00  0.000E+00
-51.278  0.000E+00  0.000E+00
-51.268  0.000E+00  0.000E+00
-51.258  0.000E+00  0.000E+00
-51.248  0.000E+00  0.000E+00
-51.238  0.000E+00  0.000E+00
-51.228  0.000E+00  0.000E+00
-51.218  0.000E+00  0.000E+00
-51.208  0.000E+00  0.000E+00
-51.198  0.000E+00  0.000E+00
-51.188  0.000E+00  0.000E+00
-51.178  0.000E+00  0.000E+00
-51.168  0.000E+00  0.000E+00
-51.158  0.000E+00  0.000E+00
-51.148  0.000E+00  0.000E+00
-51.138  0.000E+00  0.000E+00
-51.128  0.000E+00  0.000E+00
-51.118  0.000E+00  0.000E+00
-51.108  0.000E+00  0.000E+00
-51.098  0.000E+00  0.000E+00
-51.088  0.000E+00  0.000E+00
-51.078  0.000E+00  0.000E+00
-51.068  0.000E+00  0.000E+00
-51.058  0.000E+00  0.000E+00
-51.048  0.000E+00  0.000E+00
-51.038  0.000E+00  0.000E+00
-51.028  0.000E+00  0.000E+00
-51.018  0.000E+00  0.000E+00
-51.008  0.000E+00  0.000E+00
-50.998  0.000E+00  0.000E+00
-50.988  0.000E+00  0.000E+00
-50.978  0.000E+00  0.000E+00
-50.968  0.000E+00  0.000E+00
-50.958  0.000E+00  0.000E+00
-50.948  0.000E+00  0.000E+00
-50.938  0.000E+00  0.000E+00
-50.928  0.000E+00  0.000E+00
-50.918  0.000E+00  0.000E+00
-50.908  0.000E+00  0.000E+00
-50.898  0.000E+00  0.000E+00
-50.888  0.000E+00  0.000E+00
-50.878  0.000E+00  0.000E+00
-50.868  0.000E+00  0.000E+00
-50.858  0.000E+00  0.000E+00
-50.848  0.000E+00  0.000E+00
-50.838  0.000E+00  0.000E+00
-50.828  0.000E+00  0.000E+00
-50.818  0.000E+00  0.000E+00
-50.808  0.000E+00  0.000E+00
-50.798  0.000E+00  0.000E+00
-50.788  0.000E+00  0.000E+00
-50.778  0.000E+00  0.000E+00
-50.768  0.000E+00  0.000E+00
-50.758  0.000E+00  0.000E+00
-50.748  0.000E+00  0.000E+00
-50.738  0.000E+00  0.000E+00
-50.728  0.000E+00  0.000E+00
-50.718  0.000E+00  0.000E+00
-50.708  0.000E+00  0.000E+00
-50.698  0.000E+00  0.000E+00
-50.688  0.000E+00  0.000E+00
-50.678  0.000E+00  0.000E+00
-50.668  0.000E+00  0.000E+00
-50.658  0.000E+00  0.000E+00
-50.648  0.000E+00  0.000E+00
-50.638  0.000E+00  0.000E+00
-50.628  0.000E+00  0.000E+00
-50.618  0.000E+00  0.000E+00
-50.608  0.000E+00  0.000E+00
-50.598  0.000E+00  0.000E+00
-50.588  0.000E+00  0.000E+00
-50.578  0.000E+00  0.000E+00
-50.568  0.000E+00  0.000E+00
-50.558  0.000E+00  0.000E+00
-50.548  0.000E+00  0.000E+00
-50.538  0.000E+00  0.000E+00
-50.528  0.000E+00  0.000E+00
-50.518  0.000E+00  0.000E+00
-50.508  0.000E+00  0.000E+00
-50.498  0.000E+00  0.000E+00
-50.488  0.000E+00  0.000E+00
-50.478  0.000E+00  0.000E+00
-50.468  0.000E+00  0.000E+00
-50.458  0.000E+00  0.000E+00
-50.448  0.000E+00  0.000E+00
-50.438  0.000E+00  0.000E+00
-50.428  0.000E+00  0.000E+00
-50.418  0.000E+00  0.000E+00
-50.408  0.000E+00  0.000E+00
-50.398  0.000E+00  0.000E+00
-50.388  0.000E+00  0.000E+00
-50.378  0.000E+00  0.000E+00
-50.368  0.000E+00  0.000E+00
-50.358  0.000E+00  0.000E+00
-50.348  0.000E+00  0.000E+00
-50.338  0.000E+00  0.000E+00
-50.328  0.000E+00  0.000E+00
-50.318  0.000E+00  0.000E+00
-50.308  0.000E+00  0.000E+00
-50.298  0.000E+00  0.000E+00
-50.288  0.000E+00  0.000E+00
-50.278  0.000E+00  0.000E+00
-50.268  0.000E+00  0.000E+00
-50.258  0.000E+00  0.000E+00
-50.248  0.000E+00  0.000E+00
-50.238  0.000E+00  0.000E+00
-50.228  0.000E+00  0.000E+00
-50.218  0.000E+00  0.000E+00
-50.208  0.000E+00  0.000E+00
-50.198  0.000E+00  0.000E+00
-50.188  0.000E+00  0.000E+00
-50.178  0.000E+00  0.000E+00
-50.168  0.000E+00  0.000E+00
-50.158  0.000E+00  0.000E+00
-50.148  0.000E+00  0.000E+00
-50.138  0.000E+00  0.000E+00
-50.128  0.000E+00  0.000E+00
-50.118  0.000E+00  0.000E+00
-50.108  0.000E+00  0.000E+00
-50.098  0.000E+00  0.000E+00
-50.088  0.000E+00  0.000E+00
-50.078  0.000E+00  0.000E+00
-50.068  0.000E+00  0.000E+00
-50.058  0.000E+00  0.000E+00
-50.048  0.000E+00  0.000E+00
-50.038  0.000E+00  0.000E+00
-50.028  0.000E+00  0.000E+00
-50.018  0.000E+00  0.000E+00
-50.008  0.000E+00  0.000E+00
-49.998  0.000E+00  0.000E+00
-49.988  0.000E+00  0.000E+00
-49.978  0.000E+00  0.000E+00
-49.968  0.000E+00  0.000E+00
-49.958  0.000E+00  0.000E+00
-49.948  0.000E+00  0.000E+00
-49.938  0.000E+00  0.000E+00
-49.928  0.000E+00  0.000E+00
-49.918  0.000E+00  0.000E+00
-49.908  0.000E+00  0.000E+00
-49.898  0.000E+00  0.000E+00
-49.888  0.000E+00  0.000E+00
-49.878  0.000E+00  0.000E+00
-49.868  0.000E+00  0.000E+00
-49.858  0.000E+00  0.000E+00
-49.848  0.000E+00  0.000E+00
-49.838  0.000E+00  0.000E+00
-49.828  0.000E+00  0.000E+00
-49.818  0.000E+00  0.000E+00
-49.808  0.000E+00  0.000E+00
-49.798  0.000E+00  0.000E+00
-49.788  0.000E+00  0.000E+00
-49.778  0.000E+00  0.000E+00
-49.768  0.000E+00  0.000E+00
-49.758  0.000E+00  0.000E+00
-49.748  0.000E+00  0.000E+00
-49.738  0.000E+00  0.000E+00
-49.728  0.000E+00  0.000E+00
-49.718  0.000E+00  0.000E+00
-49.708  0.000E+00  0.000E+00
-49.698  0.000E+00  0.000E+00
-49.688  0.000E+00  0.000E+00
-49.678  0.000E+00  0.000E+00
-49.668  0.000E+00  0.000E+00
-49.658  0.000E+00  0.000E+00
-49.648  0.000E+00  0.000E+00
-49.638  0.000E+00  0.000E+00
-49.628  0.000E+00  0.000E+00
-49.618  0.000E+00  0.000E+00
-49.608  0.000E+00  0.000E+00
-49.598  0.000E+00  0.000E+00
-49.588  0.000E+00  0.000E+00
-49.578  0.000E+00  0.000E+00
-49.568  0.000E+00  0.000E+00
-49.558  0.000E+00  0.000E+00
-49.548  0.000E+00  0.000E+00
-49.538  0.000E+00  0.000E+00
-49.528  0.000E+00  0.000E+00
-49.518  0.000E+00  0.000E+00
-49.508  0.000E+00  0.000E+00
-49.498  0.000E+00  0.000E+00
-49.488  0.000E+00  0.000E+00
-49.478  0.000E+00  0.000E+00
-49.468  0.000E+00  0.000E+00
-49.458  0.000E+00  0.000E+00
-49.448  0.000E+00  0.000E+00
-49.438  0.000E+00  0.000E+00
-49.428  0.000E+00  0.000E+00
-49.418  0.000E+00  0.000E+00
-49.408  0.000E+00  0.000E+00
-49.398  0.000E+00  0.000E+00
-49.388  0.000E+00  0.000E+00
-49.378  0.000E+00  0.000E+00
-49.368  0.000E+00  0.000E+00
-49.358  0.000E+00  0.000E+00
-49.348  0.000E+00  0.000E+00
-49.338  0.000E+00  0.000E+00
-49.328  0.000E+00  0.000E+00
-49.318  0.000E+00  0.000E+00
-49.308  0.000E+00  0.000E+00
-49.298  0.000E+00  0.000E+00
-49.288  0.000E+00  0.000E+00
-49.278  0.000E+00  0.000E+00
-49.268  0.000E+00  0.000E+00
-49.258  0.000E+00  0.000E+00
-49.248  0.000E+00  0.000E+00
-49.238  0.000E+00  0.000E+00
-49.228  0.000E+00  0.000E+00
-49.218  0.000E+00  0.000E+00
-49.208  0.000E+00  0.000E+00
-49.198  0.000E+00  0.000E+00
-49.188  0.000E+00  0.000E+00
-49.178  0.000E+00  0.000E+00
-49.168  0.000E+00  0.000E+00
-49.158  0.000E+00  0.000E+00
-49.148  0.000E+00  0.000E+00
-49.138  0.000E+00  0.000E+00
-49.128  0.000E+00  0.000E+00
-49.118  0.000E+00  0.000E+00
-49.108  0.000E+00  0.000E+00
-49.098  0.000E+00  0.000E+00
-49.088  0.000E+00  0.000E+00
-49.078  0.000E+00  0.000E+00
-49.068  0.000E+00  0.000E+00
-49.058  0.000E+00  0.000E+00
-49.048  0.000E+00  0.000E+00
-49.038  0.000E+00  0.000E+00
-49.028  0.000E+00  0.000E+00
-49.018  0.000E+00  0.000E+00
-49.008  0.000E+00  0.000E+00
-48.998  0.000E+00  0.000E+00
-48.988  0.000E+00  0.000E+00
-48.978  0.000E+00  0.000E+00
-48.968  0.000E+00  0.000E+00
-48.958  0.000E+00  0.000E+00
-48.948  0.000E+00  0.000E+00
-48.938  0.000E+00  0.000E+00
-48.928  0.000E+00  0.000E+00
-48.918  0.000E+00  0.000E+00
-48.908  0.000E+00  0.000E+00
-48.898  0.000E+00  0.000E+00
-48.888  0.000E+00  0.000E+00
-48.878  0.000E+00  0.000E+00
-48.868  0.000E+00  0.000E+00
-48.858  0.000E+00  0.000E+00
-48.848  0.000E+00  0.000E+00
-48.838  0.000E+00  0.000E+00
-48.828  0.000E+00  0.000E+00
-48.818  0.000E+00  0.000E+00
-48.808  0.000E+00  0.000E+00
-48.798  0.000E+00  0.000E+00
-48.788  0.000E+00  0.000E+00
-48.778  0.000E+00  0.000E+00
-48.768  0.000E+00  0.000E+00
-48.758  0.000E+00  0.000E+00
-48.748  0.000E+00  0.000E+00
-48.738  0.000E+00  0.000E+00
-48.728  0.000E+00  0.000E+00
-48.718  0.000E+00  0.000E+00
-48.708  0.000E+00  0.000E+00
-48.698  0.000E+00  0.000E+00
-48.688  0.000E+00  0.000E+00
-48.678  0.000E+00  0.000E+00
-48.668  0.000E+00  0.000E+00
-48.658  0.000E+00  0.000E+00
-48.648  0.000E+00  0.000E+00
-48.638  0.000E+00  0.000E+00
-48.628  0.000E+00  0.000E+00
-48.618  0.000E+00  0.000E+00
-48.608  0.000E+00  0.000E+00
-48.598  0.000E+00  0.000E+00
-48.588  0.000E+00  0.000E+00
-48.578  0.000E+00  0.000E+00
-48.568  0.000E+00  0.000E+00
-48.558  0.000E+00  0.000E+00
-48.548  0.000E+00  0.000E+00
-48.538  0.000E+00  0.000E+00
-48.528  0.000E+00  0.000E+00
-48.518  0.000E+00  0.000E+00
-48.508  0.000E+00  0.000E+00
-48.498  0.000E+00  0.000E+00
-48.488  0.000E+00  0.000E+00
-48.478  0.000E+00  0.000E+00
-48.468  0.000E+00  0.000E+00
-48.458  0.000E+00  0.000E+00
-48.448  0.000E+00  0.000E+00
-48.438  0.000E+00  0.000E+00
-48.428  0.000E+00  0.000E+00
-48.418  0.000E+00  0.000E+00
-48.408  0.000E+00  0.000E+00
-48.398  0.000E+00  0.000E+00
-48.388  0.000E+00  0.000E+00
-48.378  0.000E+00  0.000E+00
-48.368  0.000E+00  0.000E+00
-48.358  0.000E+00  0.000E+00
-48.348  0.000E+00  0.000E+00
-48.338  0.000E+00  0.000E+00
-48.328  0.000E+00  0.000E+00
-48.318  0.000E+00  0.000E+00
-48.308  0.000E+00  0.000E+00
-48.298  0.000E+00  0.000E+00
-48.288  0.000E+00  0.000E+00
-48.278  0.000E+00  0.000E+00
-48.268  0.000E+00  0.000E+00
-48.258  0.000E+00  0.000E+00
-48.248  0.000E+00  0.000E+00
-48.238  0.000E+00  0.000E+00
-48.228  0.000E+00  0.000E+00
-48.218  0.000E+00  0.000E+00
-48.208  0.000E+00  0.000E+00
-48.198  0.000E+00  0.000E+00
-48.188  0.000E+00  0.000E+00
-48.178  0.000E+00  0.000E+00
-48.168  0.000E+00  0.000E+00
-48.158  0.000E+00  0.000E+00
-48.148  0.000E+00  0.000E+00
-48.138  0.000E+00  0.000E+00
-48.128  0.000E+00  0.000E+00
-48.118  0.000E+00  0.000E+00
-48.108  0.000E+00  0.000E+00
-48.098  0.000E+00  0.000E+00
-48.088  0.000E+00  0.000E+00
-48.078  0.000E+00  0.000E+00
-48.068  0.000E+00  0.000E+00
-48.058  0.000E+00  0.000E+00
-48.048  0.000E+00  0.000E+00
-48.038  0.000E+00  0.000E+00
-48.028  0.000E+00  0.000E+00
-48.018  0.000E+00  0.000E+00
-48.008  0.000E+00  0.000E+00
-47.998  0.000E+00  0.000E+00
-47.988  0.000E+00  0.000E+00
-47.978  0.000E+00  0.000E+00
-47.968  0.000E+00  0.000E+00
-47.958  0.000E+00  0.000E+00
-47.948  0.000E+00  0.000E+00
-47.938  0.000E+00  0.000E+00
-47.928  0.000E+00  0.000E+00
-47.918  0.000E+00  0.000E+00
-47.908  0.000E+00  0.000E+00
-47.898  0.000E+00  0.000E+00
-47.888  0.000E+00  0.000E+00
-47.878  0.000E+00  0.000E+00
-47.868  0.000E+00  0.000E+00
-47.858  0.000E+00  0.000E+00
-47.848  0.000E+00  0.000E+00
-47.838  0.000E+00  0.000E+00
-47.828  0.000E+00  0.000E+00
-47.818  0.000E+00  0.000E+00
-47.808  0.000E+00  0.000E+00
-47.798  0.000E+00  0.000E+00
-47.788  0.000E+00  0.000E+00
-47.778  0.000E+00  0.000E+00
-47.768  0.000E+00  0.000E+00
-47.758  0.000E+00  0.000E+00
-47.748  0.000E+00  0.000E+00
-47.738  0.000E+00  0.000E+00
-47.728  0.000E+00  0.000E+00
-47.718  0.000E+00  0.000E+00
-47.708  0.000E+00  0.000E+00
-47.698  0.000E+00  0.000E+00
-47.688  0.000E+00  0.000E+00
-47.678  0.000E+00  0.000E+00
-47.668  0.000E+00  0.000E+00
-47.658  0.000E+00  0.000E+00
-47.648  0.000E+00  0.000E+00
-47.638  0.000E+00  0.000E+00
-47.628  0.000E+00  0.000E+00
-47.618  0.000E+00  0.000E+00
-47.608  0.000E+00  0.000E+00
-47.598  0.000E+00  0.000E+00
-47.588  0.000E+00  0.000E+00
-47.578  0.000E+00  0.000E+00
-47.568  0.000E+00  0.000E+00
-47.558  0.000E+00  0.000E+00
-47.548  0.000E+00  0.000E+00
-47.538  0.000E+00  0.000E+00
-47.528  0.000E+00  0.000E+00
-47.518  0.000E+00  0.000E+00
-47.508  0.000E+00  0.000E+00
-47.498  0.000E+00  0.000E+00
-47.488  0.000E+00  0.000E+00
-47.478  0.000E+00  0.000E+00
-47.468  0.000E+00  0.000E+00
-47.458  0.000E+00  0.000E+00
-47.448  0.000E+00  0.000E+00
-47.438  0.000E+00  0.000E+00
-47.428  0.000E+00  0.000E+00
-47.418  0.000E+00  0.000E+00
-47.408  0.000E+00  0.000E+00
-47.398  0.000E+00  0.000E+00
-47.388  0.000E+00  0.000E+00
-47.378  0.000E+00  0.000E+00
-47.368  0.000E+00  0.000E+00
-47.358  0.000E+00  0.000E+00
-47.348  0.000E+00  0.000E+00
-47.338  0.000E+00  0.000E+00
-47.328  0.000E+00  0.000E+00
-47.318  0.000E+00  0.000E+00
-47.308  0.000E+00  0.000E+00
-47.298  0.000E+00  0.000E+00
-47.288  0.000E+00  0.000E+00
-47.278  0.000E+00  0.000E+00
-47.268  0.000E+00  0.000E+00
-47.258  0.000E+00  0.000E+00
-47.248  0.000E+00  0.000E+00
-47.238  0.000E+00  0.000E+00
-47.228  0.000E+00  0.000E+00
-47.218  0.000E+00  0.000E+00
-47.208  0.000E+00  0.000E+00
-47.198  0.000E+00  0.000E+00
-47.188  0.000E+00  0.000E+00
-47.178  0.000E+00  0.000E+00
-47.168  0.000E+00  0.000E+00
-47.158  0.000E+00  0.000E+00
-47.148  0.000E+00  0.000E+00
-47.138  0.000E+00  0.000E+00
-47.128  0.000E+00  0.000E+00
-47.118  0.000E+00  0.000E+00
-47.108  0.000E+00  0.000E+00
-47.098  0.000E+00  0.000E+00
-47.088  0.000E+00  0.000E+00
-47.078  0.000E+00  0.000E+00
-47.068  0.000E+00  0.000E+00
-47.058  0.000E+00  0.000E+00
-47.048  0.000E+00  0.000E+00
-47.038  0.000E+00  0.000E+00
-47.028  0.000E+00  0.000E+00
-47.018  0.000E+00  0.000E+00
-47.008  0.000E+00  0.000E+00
-46.998  0.000E+00  0.000E+00
-46.988  0.000E+00  0.000E+00
-46.978  0.000E+00  0.000E+00
-46.968  0.000E+00  0.000E+00
-46.958  0.000E+00  0.000E+00
-46.948  0.000E+00  0.000E+00
-46.938  0.000E+00  0.000E+00
-46.928  0.000E+00  0.000E+00
-46.918  0.000E+00  0.000E+00
-46.908  0.000E+00  0.000E+00
-46.898  0.000E+00  0.000E+00
-46.888  0.000E+00  0.000E+00
-46.878  0.000E+00  0.000E+00
-46.868  0.000E+00  0.000E+00
-46.858  0.000E+00  0.000E+00
-46.848  0.000E+00  0.000E+00
-46.838  0.000E+00  0.000E+00
-46.828  0.000E+00  0.000E+00
-46.818  0.000E+00  0.000E+00
-46.808  0.000E+00  0.000E+00
-46.798  0.000E+00  0.000E+00
-46.788  0.000E+00  0.000E+00
-46.778  0.000E+00  0.000E+00
-46.768  0.000E+00  0.000E+00
-46.758  0.000E+00  0.000E+00
-46.748  0.000E+00  0.000E+00
-46.738  0.000E+00  0.000E+00
-46.728  0.000E+00  0.000E+00
-46.718  0.000E+00  0.000E+00
-46.708  0.000E+00  0.000E+00
-46.698  0.000E+00  0.000E+00
-46.688  0.000E+00  0.000E+00
-46.678  0.000E+00  0.000E+00
-46.668  0.000E+00  0.000E+00
-46.658  0.000E+00  0.000E+00
-46.648  0.000E+00  0.000E+00
-46.638  0.000E+00  0.000E+00
-46.628  0.000E+00  0.000E+00
-46.618  0.000E+00  0.000E+00
-46.608  0.000E+00  0.000E+00
-46.598  0.000E+00  0.000E+00
-46.588  0.000E+00  0.000E+00
-46.578  0.000E+00  0.000E+00
-46.568  0.000E+00  0.000E+00
-46.558  0.000E+00  0.000E+00
-46.548  0.000E+00  0.000E+00
-46.538  0.000E+00  0.000E+00
-46.528  0.000E+00  0.000E+00
-46.518  0.000E+00  0.000E+00
-46.508  0.000E+00  0.000E+00
-46.498  0.000E+00  0.000E+00
-46.488  0.000E+00  0.000E+00
-46.478  0.000E+00  0.000E+00
-46.468  0.000E+00  0.000E+00
-46.458  0.000E+00  0.000E+00
-46.448  0.000E+00  0.000E+00
-46.438  0.000E+00  0.000E+00
-46.428  0.000E+00  0.000E+00
-46.418  0.000E+00  0.000E+00
-46.408  0.000E+00  0.000E+00
-46.398  0.000E+00  0.000E+00
-46.388  0.000E+00  0.000E+00
-46.378  0.000E+00  0.000E+00
-46.368  0.000E+00  0.000E+00
-46.358  0.000E+00  0.000E+00
-46.348  0.000E+00  0.000E+00
-46.338  0.000E+00  0.000E+00
-46.328  0.000E+00  0.000E+00
-46.318  0.000E+00  0.000E+00
-46.308  0.000E+00  0.000E+00
-46.298  0.000E+00  0.000E+00
-46.288  0.000E+00  0.000E+00
-46.278  0.000E+00  0.000E+00
-46.268  0.000E+00  0.000E+00
-46.258  0.000E+00  0.000E+00
-46.248  0.000E+00  0.000E+00
-46.238  0.000E+00  0.000E+00
-46.228  0.000E+00  0.000E+00
-46.218  0.000E+00  0.000E+00
-46.208  0.000E+00  0.000E+00
-46.198  0.000E+00  0.000E+00
-46.188  0.000E+00  0.000E+00
-46.178  0.000E+00  0.000E+00
-46.168  0.000E+00  0.000E+00
-46.158  0.000E+00  0.000E+00
-46.148  0.000E+00  0.000E+00
-46.138  0.000E+00  0.000E+00
-46.128  0.000E+00  0.000E+00
-46.118  0.000E+00  0.000E+00
-46.108  0.000E+00  0.000E+00
-46.098  0.000E+00  0.000E+00
-46.088  0.000E+00  0.000E+00
-46.078  0.000E+00  0.000E+00
-46.068  0.000E+00  0.000E+00
-46.058  0.000E+00  0.000E+00
-46.048  0.000E+00  0.000E+00
-46.038  0.000E+00  0.000E+00
-46.028  0.000E+00  0.000E+00
-46.018  0.000E+00  0.000E+00
-46.008  0.000E+00  0.000E+00
-45.998  0.000E+00  0.000E+00
-45.988  0.000E+00  0.000E+00
-45.978  0.000E+00  0.000E+00
-45.968  0.000E+00  0.000E+00
-45.958  0.000E+00  0.000E+00
-45.948  0.000E+00  0.000E+00
-45.938  0.000E+00  0.000E+00
-45.928  0.000E+00  0.000E+00
-45.918  0.000E+00  0.000E+00
-45.908  0.000E+00  0.000E+00
-45.898  0.000E+00  0.000E+00
-45.888  0.000E+00  0.000E+00
-45.878  0.000E+00  0.000E+00
-45.868  0.000E+00  0.000E+00
-45.858  0.000E+00  0.000E+00
-45.848  0.000E+00  0.000E+00