
     Program PWSCF v.6.6 starts on 28Jan2021 at 21:50:28 

     This program is part of the open-source Quantum ESPRESSO suite
     for quantum simulation of materials; please cite
         "P. Giannozzi et al., J. Phys.:Condens. Matter 21 395502 (2009);
         "P. Giannozzi et al., J. Phys.:Condens. Matter 29 465901 (2017);
          URL http://www.quantum-espresso.org", 
     in publications or presentations arising from this work. More details at
     http://www.quantum-espresso.org/quote

     Parallel version (MPI), running on     2 processors

     MPI processes distributed on     1 nodes
     R & G space division:  proc/nbgrp/npool/nimage =       2
     Fft bands division:     nmany     =       1
     Waiting for input...
     Reading input from standard input

     Current dimensions of program PWSCF are:
     Max number of different atomic species (ntypx) = 10
     Max number of k-points (npk) =  40000
     Max angular momentum in pseudopotentials (lmaxx) =  3
     file Nb.pbe-spn-rrkjus_psl.1.0.0.UPF: wavefunction(s)  4S 4P renormalized

     Subspace diagonalization in iterative solution of the eigenvalue problem:
     a serial algorithm will be used


     Parallelization info
     --------------------
     sticks:   dense  smooth     PW     G-vecs:    dense   smooth      PW
     Min         972     189     59               210176    18015    2952
     Max         973     190     62               210207    18026    2957
     Sum        1945     379    121               420383    36041    5909



     bravais-lattice index     =            4
     lattice parameter (alat)  =       6.2739  a.u.
     unit-cell volume          =    1288.3486 (a.u.)^3
     number of atoms/cell      =            3
     number of atomic types    =            2
     number of electrons       =        25.00
     number of Kohn-Sham states=           30
     kinetic-energy cutoff     =      35.0000  Ry
     charge density cutoff     =     720.0000  Ry
     convergence threshold     =      1.0E-08
     mixing beta               =       0.7000
     number of iterations used =            8  plain     mixing
     Exchange-correlation= PBE
                           (   1   4   3   4   0   0   0)

     celldm(1)=   6.273891  celldm(2)=   6.024096  celldm(3)=   6.024096
     celldm(4)=   0.000000  celldm(5)=   0.000000  celldm(6)=   0.000000

     crystal axes: (cart. coord. in units of alat)
               a(1) = (   1.000000   0.000000   0.000000 )  
               a(2) = (  -0.500000   0.866025   0.000000 )  
               a(3) = (   0.000000   0.000000   6.024096 )  

     reciprocal axes: (cart. coord. in units 2 pi/alat)
               b(1) = (  1.000000  0.577350 -0.000000 )  
               b(2) = (  0.000000  1.154701  0.000000 )  
               b(3) = (  0.000000 -0.000000  0.166000 )  


     PseudoPot. # 1 for Nb read from file:
     ../Nb.pbe-spn-rrkjus_psl.1.0.0.UPF
     MD5 check sum: 6ee677a9f002bd3e3657f443f129faad
     Pseudo is Ultrasoft + core correction, Zval = 13.0
     Generated using "atomic" code by A. Dal Corso v.6.2.2
     Using radial grid of 1227 points,  6 beta functions with: 
                l(1) =   0
                l(2) =   0
                l(3) =   1
                l(4) =   1
                l(5) =   2
                l(6) =   2
     Q(r) pseudized with 0 coefficients 


     PseudoPot. # 2 for S  read from file:
     ../S.pbe-nl-rrkjus_psl.1.0.0.UPF
     MD5 check sum: 816524f9d2370a67bf2b5249ef8e004b
     Pseudo is Ultrasoft + core correction, Zval =  6.0
     Generated using "atomic" code by A. Dal Corso v.6.3
     Using radial grid of 1151 points,  4 beta functions with: 
                l(1) =   0
                l(2) =   0
                l(3) =   1
                l(4) =   1
     Q(r) pseudized with 0 coefficients 


     atomic species   valence    mass     pseudopotential
        Nb            13.00    92.90600     Nb( 1.00)
        S              6.00    32.06500     S ( 1.00)

     Starting magnetic structure 
     atomic species   magnetization
        Nb           0.100
        S            0.000

     12 Sym. Ops. (no inversion) found


                                    s                        frac. trans.

      isym =  1     identity                                     

 cryst.   s( 1) = (     1          0          0      )
                  (     0          1          0      )
                  (     0          0          1      )

 cart.    s( 1) = (  1.0000000  0.0000000  0.0000000 )
                  (  0.0000000  1.0000000  0.0000000 )
                  (  0.0000000  0.0000000  1.0000000 )


      isym =  2     180 deg rotation - cart. axis [0,1,0]        

 cryst.   s( 2) = (    -1          0          0      )
                  (     1          1          0      )
                  (     0          0         -1      )

 cart.    s( 2) = ( -1.0000000  0.0000000  0.0000000 )
                  (  0.0000000  1.0000000  0.0000000 )
                  (  0.0000000  0.0000000 -1.0000000 )


      isym =  3     120 deg rotation - cryst. axis [0,0,1]       

 cryst.   s( 3) = (     0          1          0      )
                  (    -1         -1          0      )
                  (     0          0          1      )

 cart.    s( 3) = ( -0.5000000 -0.8660254  0.0000000 )
                  (  0.8660254 -0.5000000  0.0000000 )
                  (  0.0000000  0.0000000  1.0000000 )


      isym =  4     120 deg rotation - cryst. axis [0,0,-1]      

 cryst.   s( 4) = (    -1         -1          0      )
                  (     1          0          0      )
                  (     0          0          1      )

 cart.    s( 4) = ( -0.5000000  0.8660254  0.0000000 )
                  ( -0.8660254 -0.5000000  0.0000000 )
                  (  0.0000000  0.0000000  1.0000000 )


      isym =  5     180 deg rotation - cryst. axis [1,-1,0]      

 cryst.   s( 5) = (     0         -1          0      )
                  (    -1          0          0      )
                  (     0          0         -1      )

 cart.    s( 5) = (  0.5000000 -0.8660254  0.0000000 )
                  ( -0.8660254 -0.5000000  0.0000000 )
                  (  0.0000000  0.0000000 -1.0000000 )


      isym =  6     180 deg rotation - cryst. axis [2,1,0]       

 cryst.   s( 6) = (     1          1          0      )
                  (     0         -1          0      )
                  (     0          0         -1      )

 cart.    s( 6) = (  0.5000000  0.8660254  0.0000000 )
                  (  0.8660254 -0.5000000  0.0000000 )
                  (  0.0000000  0.0000000 -1.0000000 )


      isym =  7     inv. 180 deg rotation - cart. axis [0,0,1]   

 cryst.   s( 7) = (     1          0          0      )
                  (     0          1          0      )
                  (     0          0         -1      )

 cart.    s( 7) = (  1.0000000  0.0000000  0.0000000 )
                  (  0.0000000  1.0000000  0.0000000 )
                  (  0.0000000  0.0000000 -1.0000000 )


      isym =  8     inv. 180 deg rotation - cart. axis [1,0,0]   

 cryst.   s( 8) = (    -1          0          0      )
                  (     1          1          0      )
                  (     0          0          1      )

 cart.    s( 8) = ( -1.0000000  0.0000000  0.0000000 )
                  (  0.0000000  1.0000000  0.0000000 )
                  (  0.0000000  0.0000000  1.0000000 )


      isym =  9     inv.  60 deg rotation - cryst. axis [0,0,1]  

 cryst.   s( 9) = (    -1         -1          0      )
                  (     1          0          0      )
                  (     0          0         -1      )

 cart.    s( 9) = ( -0.5000000  0.8660254  0.0000000 )
                  ( -0.8660254 -0.5000000  0.0000000 )
                  (  0.0000000  0.0000000 -1.0000000 )


      isym = 10     inv.  60 deg rotation - cryst. axis [0,0,-1] 

 cryst.   s(10) = (     0          1          0      )
                  (    -1         -1          0      )
                  (     0          0         -1      )

 cart.    s(10) = ( -0.5000000 -0.8660254  0.0000000 )
                  (  0.8660254 -0.5000000  0.0000000 )
                  (  0.0000000  0.0000000 -1.0000000 )


      isym = 11     inv. 180 deg rotation - cryst. axis [0,1,0]  

 cryst.   s(11) = (     1          1          0      )
                  (     0         -1          0      )
                  (     0          0          1      )

 cart.    s(11) = (  0.5000000  0.8660254  0.0000000 )
                  (  0.8660254 -0.5000000  0.0000000 )
                  (  0.0000000  0.0000000  1.0000000 )


      isym = 12     inv. 180 deg rotation - cryst. axis [1,1,0]  

 cryst.   s(12) = (     0         -1          0      )
                  (    -1          0          0      )
                  (     0          0          1      )

 cart.    s(12) = (  0.5000000 -0.8660254  0.0000000 )
                  ( -0.8660254 -0.5000000  0.0000000 )
                  (  0.0000000  0.0000000  1.0000000 )


     point group D_3h (-62m)
     there are  6 classes
     the character table:

       E     2C3   3C2   s_h   2S3   3s_v 
A'_1   1.00  1.00  1.00  1.00  1.00  1.00
A'_2   1.00  1.00 -1.00  1.00  1.00 -1.00
E'     2.00 -1.00  0.00  2.00 -1.00  0.00
A''1   1.00  1.00  1.00 -1.00 -1.00 -1.00
A''2   1.00  1.00 -1.00 -1.00 -1.00  1.00
E''    2.00 -1.00  0.00 -2.00  1.00  0.00

     the symmetry operations in each class and the name of the first element:

     E        1
          identity                                               
     2C3      3    4
          120 deg rotation - cryst. axis [0,0,1]                 
     3C2      2    6    5
          180 deg rotation - cart. axis [0,1,0]                  
     s_h      7
          inv. 180 deg rotation - cart. axis [0,0,1]             
     2S3      9   10
          inv.  60 deg rotation - cryst. axis [0,0,1]            
     3s_v     8   11   12
          inv. 180 deg rotation - cart. axis [1,0,0]             

   Cartesian axes

     site n.     atom                  positions (alat units)
         1           S   tau(   1) = (   0.0000000   0.5773503   3.8149545  )
         2           Nb  tau(   2) = (   0.5000000   0.2886751   3.0120482  )
         3           S   tau(   3) = (   0.0000000   0.5773503   2.2091419  )

   Crystallographic axes

     site n.     atom                  positions (cryst. coord.)
         1           S   tau(   1) = (  0.3333333  0.6666667  0.6332824  )
         2           Nb  tau(   2) = (  0.6666667  0.3333333  0.5000000  )
         3           S   tau(   3) = (  0.3333333  0.6666667  0.3667176  )

     number of k points=     8  Methfessel-Paxton smearing, width (Ry)=  0.0200
                       cart. coord. in units 2pi/alat
        k(    1) = (   0.0000000   0.0000000   0.0000000), wk =   0.0666667
        k(    2) = (   0.0666667   0.0384900   0.0000000), wk =   0.1333333
        k(    3) = (   0.1333333   0.0769800   0.0000000), wk =   0.1333333
        k(    4) = (   0.2000000   0.1154701   0.0000000), wk =   0.1333333
        k(    5) = (   0.2666667   0.1539601   0.0000000), wk =   0.1333333
        k(    6) = (   0.3333333   0.1924501   0.0000000), wk =   0.1333333
        k(    7) = (   0.4000000   0.2309401   0.0000000), wk =   0.1333333
        k(    8) = (   0.4666667   0.2694301   0.0000000), wk =   0.1333333

                       cryst. coord.
        k(    1) = (   0.0000000   0.0000000   0.0000000), wk =   0.0666667
        k(    2) = (   0.0666667   0.0000000   0.0000000), wk =   0.1333333
        k(    3) = (   0.1333333   0.0000000   0.0000000), wk =   0.1333333
        k(    4) = (   0.2000000   0.0000000   0.0000000), wk =   0.1333333
        k(    5) = (   0.2666667   0.0000000   0.0000000), wk =   0.1333333
        k(    6) = (   0.3333333   0.0000000   0.0000000), wk =   0.1333333
        k(    7) = (   0.4000000   0.0000000   0.0000000), wk =   0.1333333
        k(    8) = (   0.4666667   0.0000000   0.0000000), wk =   0.1333333

     Dense  grid:   420383 G-vectors     FFT dimensions: (  54,  54, 324)

     Smooth grid:    36041 G-vectors     FFT dimensions: (  24,  24, 144)

     Dynamical RAM for                 wfc:       1.03 MB

     Dynamical RAM for     wfc (w. buffer):      17.53 MB

     Dynamical RAM for           str. fact:       6.41 MB

     Dynamical RAM for           local pot:       0.00 MB

     Dynamical RAM for          nlocal pot:       1.17 MB

     Dynamical RAM for                qrad:       4.31 MB

     Dynamical RAM for          rho,v,vnew:      40.87 MB

     Dynamical RAM for               rhoin:      13.62 MB

     Dynamical RAM for            rho*nmix:     102.62 MB

     Dynamical RAM for           G-vectors:      12.16 MB

     Dynamical RAM for          h,s,v(r/c):       0.16 MB

     Dynamical RAM for          <psi|beta>:       0.02 MB

     Dynamical RAM for                 psi:       2.06 MB

     Dynamical RAM for                hpsi:       2.06 MB

     Dynamical RAM for                spsi:       2.06 MB

     Dynamical RAM for      wfcinit/wfcrot:       2.08 MB

     Dynamical RAM for           addusdens:     606.13 MB

     Estimated static dynamical RAM per process >     229.94 MB

     Estimated max dynamical RAM per process >     836.06 MB

     Estimated total dynamical RAM >       1.63 GB
     Generating pointlists ...
     new r_m :   0.4079 (alat units)  2.5593 (a.u.) for type    1
     new r_m :   0.4079 (alat units)  2.5593 (a.u.) for type    2

     Initial potential from superposition of free atoms

     starting charge   24.99863, renormalised to   25.00000
     Starting wfcs are   21 randomized atomic wfcs +    9 random wfcs

     total cpu time spent up to now is        7.0 secs

     Self-consistent Calculation

     iteration #  1     ecut=    35.00 Ry     beta= 0.70
     Davidson diagonalization with overlap
     ethr =  1.00E-02,  avg # of iterations =  7.8

     Threshold (ethr) on eigenvalues was too large:
     Diagonalizing with lowered threshold

     Davidson diagonalization with overlap
     ethr =  3.35E-04,  avg # of iterations =  2.5

     total cpu time spent up to now is       27.0 secs

     total energy              =    -159.46839203 Ry
     estimated scf accuracy    <       0.08447811 Ry

     total magnetization       =     0.73 Bohr mag/cell
     absolute magnetization    =     0.85 Bohr mag/cell

     iteration #  2     ecut=    35.00 Ry     beta= 0.70
     Davidson diagonalization with overlap
     ethr =  3.38E-04,  avg # of iterations =  2.8

     total cpu time spent up to now is       37.0 secs

     total energy              =    -159.45572401 Ry
     estimated scf accuracy    <       0.06195606 Ry

     total magnetization       =     0.78 Bohr mag/cell
     absolute magnetization    =     0.88 Bohr mag/cell

     iteration #  3     ecut=    35.00 Ry     beta= 0.70
     Davidson diagonalization with overlap
     ethr =  2.48E-04,  avg # of iterations =  2.7

     total cpu time spent up to now is       47.4 secs

     total energy              =    -159.28556024 Ry
     estimated scf accuracy    <       6.05077482 Ry

     total magnetization       =     0.89 Bohr mag/cell
     absolute magnetization    =     1.06 Bohr mag/cell

     iteration #  4     ecut=    35.00 Ry     beta= 0.70
     Davidson diagonalization with overlap
     ethr =  2.48E-04,  avg # of iterations =  2.0

     total cpu time spent up to now is       57.4 secs

     total energy              =    -159.48642020 Ry
     estimated scf accuracy    <       0.00665900 Ry

     total magnetization       =     0.77 Bohr mag/cell
     absolute magnetization    =     0.87 Bohr mag/cell

     iteration #  5     ecut=    35.00 Ry     beta= 0.70
     Davidson diagonalization with overlap
     ethr =  2.66E-05,  avg # of iterations =  5.9

     total cpu time spent up to now is       67.9 secs

     total energy              =    -159.48669003 Ry
     estimated scf accuracy    <       0.00068677 Ry

     total magnetization       =     0.76 Bohr mag/cell
     absolute magnetization    =     0.86 Bohr mag/cell

     iteration #  6     ecut=    35.00 Ry     beta= 0.70
     Davidson diagonalization with overlap
     ethr =  2.75E-06,  avg # of iterations =  6.6

     total cpu time spent up to now is       78.6 secs

     total energy              =    -159.48674723 Ry
     estimated scf accuracy    <       0.00006061 Ry

     total magnetization       =     0.77 Bohr mag/cell
     absolute magnetization    =     0.86 Bohr mag/cell

     iteration #  7     ecut=    35.00 Ry     beta= 0.70
     Davidson diagonalization with overlap
     ethr =  2.42E-07,  avg # of iterations =  1.5

     total cpu time spent up to now is       88.3 secs

     total energy              =    -159.48675586 Ry
     estimated scf accuracy    <       0.00000211 Ry

     total magnetization       =     0.77 Bohr mag/cell
     absolute magnetization    =     0.86 Bohr mag/cell

     iteration #  8     ecut=    35.00 Ry     beta= 0.70
     Davidson diagonalization with overlap
     ethr =  8.46E-09,  avg # of iterations =  2.4

     total cpu time spent up to now is       98.6 secs

     total energy              =    -159.48675808 Ry
     estimated scf accuracy    <       0.00000023 Ry

     total magnetization       =     0.78 Bohr mag/cell
     absolute magnetization    =     0.86 Bohr mag/cell

     iteration #  9     ecut=    35.00 Ry     beta= 0.70
     Davidson diagonalization with overlap
     ethr =  9.02E-10,  avg # of iterations =  2.3

     total cpu time spent up to now is      109.0 secs

     total energy              =    -159.48675891 Ry
     estimated scf accuracy    <       0.00000025 Ry

     total magnetization       =     0.78 Bohr mag/cell
     absolute magnetization    =     0.86 Bohr mag/cell

     iteration # 10     ecut=    35.00 Ry     beta= 0.70
     Davidson diagonalization with overlap
     ethr =  9.02E-10,  avg # of iterations =  2.0

     total cpu time spent up to now is      119.0 secs

     total energy              =    -159.48675935 Ry
     estimated scf accuracy    <       0.00000009 Ry

     total magnetization       =     0.79 Bohr mag/cell
     absolute magnetization    =     0.86 Bohr mag/cell

     iteration # 11     ecut=    35.00 Ry     beta= 0.70
     Davidson diagonalization with overlap
     ethr =  3.45E-10,  avg # of iterations =  1.0

     total cpu time spent up to now is      128.5 secs

     total energy              =    -159.48675198 Ry
     estimated scf accuracy    <       0.00000009 Ry

     total magnetization       =     0.79 Bohr mag/cell
     absolute magnetization    =     0.86 Bohr mag/cell

     iteration # 12     ecut=    35.00 Ry     beta= 0.70
     Davidson diagonalization with overlap
     ethr =  3.45E-10,  avg # of iterations =  4.0

     total cpu time spent up to now is      139.2 secs

     total energy              =    -159.48675465 Ry
     estimated scf accuracy    <       0.00000007 Ry

     total magnetization       =     0.77 Bohr mag/cell
     absolute magnetization    =     0.86 Bohr mag/cell

     iteration # 13     ecut=    35.00 Ry     beta= 0.70
     Davidson diagonalization with overlap
     ethr =  2.92E-10,  avg # of iterations =  3.4

     total cpu time spent up to now is      149.7 secs

     total energy              =    -159.48675449 Ry
     estimated scf accuracy    <       0.00000011 Ry

     total magnetization       =     0.76 Bohr mag/cell
     absolute magnetization    =     0.86 Bohr mag/cell

     iteration # 14     ecut=    35.00 Ry     beta= 0.70
     Davidson diagonalization with overlap
     ethr =  2.92E-10,  avg # of iterations =  3.0

     total cpu time spent up to now is      160.2 secs

     total energy              =    -159.48675551 Ry
     estimated scf accuracy    <       0.00000007 Ry

     total magnetization       =     0.75 Bohr mag/cell
     absolute magnetization    =     0.88 Bohr mag/cell

     iteration # 15     ecut=    35.00 Ry     beta= 0.70
     Davidson diagonalization with overlap
     ethr =  2.70E-10,  avg # of iterations =  2.0

     Magnetic moment per site:
     atom:    1    charge:    5.3909    magn:   -0.0335    constr:    0.0000
     atom:    2    charge:   11.1287    magn:    0.6894    constr:    0.0000
     atom:    3    charge:    5.3909    magn:   -0.0335    constr:    0.0000

     total cpu time spent up to now is      170.3 secs

     End of self-consistent calculation

 ------ SPIN UP ------------


          k = 0.0000 0.0000 0.0000 (  4457 PWs)   bands (ev):

   -56.9642 -33.1198 -32.7186 -32.7186 -13.5636 -13.4975  -5.4212  -3.7869
    -2.9562  -1.2146  -1.2146  -0.4039  -0.4039  -0.0610  -0.0610   0.5520
     0.5520   1.0527   3.8304   4.4627   5.3833   5.6304   7.2808   7.7548
     7.8090   8.6164  10.2674  10.2674  10.6057  10.6057

     occupation numbers 
     1.0000   1.0000   1.0000   1.0000   1.0000   1.0000   1.0000   1.0000
     1.0000   1.0151   1.0151  -0.0353  -0.0353  -0.0014  -0.0014  -0.0000
    -0.0000  -0.0000  -0.0000  -0.0000  -0.0000  -0.0000  -0.0000  -0.0000
    -0.0000  -0.0000  -0.0000  -0.0000  -0.0000  -0.0000

          k = 0.0667 0.0385 0.0000 (  4451 PWs)   bands (ev):

   -56.9628 -33.1180 -32.7314 -32.7218 -13.5198 -13.4560  -5.3340  -3.7647
    -2.8921  -1.3315  -1.1462  -0.6311  -0.4737  -0.3158  -0.0981   0.4386
     0.5545   1.1370   3.9893   4.5339   5.4781   5.6954   7.3218   7.9815
     8.0263   8.6617   9.9955  10.2851  10.4247  10.6820

     occupation numbers 
     1.0000   1.0000   1.0000   1.0000   1.0000   1.0000   1.0000   1.0000
     1.0000   1.0038   1.0262   0.2149  -0.0178  -0.0267  -0.0025  -0.0000
    -0.0000  -0.0000  -0.0000  -0.0000  -0.0000  -0.0000  -0.0000  -0.0000
    -0.0000  -0.0000  -0.0000  -0.0000  -0.0000  -0.0000

          k = 0.1333 0.0770 0.0000 (  4454 PWs)   bands (ev):

   -56.9590 -33.1132 -32.7679 -32.7305 -13.3919 -13.3352  -5.0864  -3.7033
    -2.7131  -1.6989  -1.2503  -0.9696  -0.8075  -0.6534  -0.1720   0.2134
     0.5485   1.2533   4.3811   4.7458   5.7220   5.8889   7.4103   8.4202
     8.4528   8.7714   9.5856   9.8147  10.4809  10.8467

     occupation numbers 
     1.0000   1.0000   1.0000   1.0000   1.0000   1.0000   1.0000   1.0000
     1.0000   1.0000   1.0105   1.0081   0.7317   0.2731  -0.0068  -0.0000
    -0.0000  -0.0000  -0.0000  -0.0000  -0.0000  -0.0000  -0.0000  -0.0000
    -0.0000  -0.0000  -0.0000  -0.0000  -0.0000  -0.0000

          k = 0.2000 0.1155 0.0000 (  4482 PWs)   bands (ev):

   -56.9535 -33.1066 -32.8219 -32.7434 -13.1919 -13.1462  -4.7234  -3.6192
    -2.5150  -2.2991  -2.0723  -1.1391  -0.8861  -0.8283  -0.1227  -0.0057
     0.5181   1.3123   4.8978   5.0910   5.9793   6.2030   7.5310   8.2010
     8.2626   8.8659   9.8469  10.1076  10.4400  10.8456

     occupation numbers 
     1.0000   1.0000   1.0000   1.0000   1.0000   1.0000   1.0000   1.0000
     1.0000   1.0000   1.0000   1.0274   0.9085   0.7857  -0.0035  -0.0005
    -0.0000  -0.0000  -0.0000  -0.0000  -0.0000  -0.0000  -0.0000  -0.0000
    -0.0000  -0.0000  -0.0000  -0.0000  -0.0000  -0.0000

          k = 0.2667 0.1540 0.0000 (  4504 PWs)   bands (ev):

   -56.9472 -33.0985 -32.8835 -32.7583 -12.9419 -12.9101  -4.3353  -3.5543
    -3.0893  -2.8962  -2.3523  -1.1219  -1.0586  -0.8869  -0.1727   0.2189
     0.4665   1.3201   5.4652   5.5405   6.0479   6.5942   7.6397   7.6573
     7.8985   8.5896  10.0342  10.4305  10.8105  11.0194

     occupation numbers 
     1.0000   1.0000   1.0000   1.0000   1.0000   1.0000   1.0000   1.0000
     1.0000   1.0000   1.0000   1.0302   1.0354   0.9100  -0.0069  -0.0000
    -0.0000  -0.0000  -0.0000  -0.0000  -0.0000  -0.0000  -0.0000  -0.0000
    -0.0000  -0.0000  -0.0000  -0.0000  -0.0000  -0.0000

          k = 0.3333 0.1925 0.0000 (  4514 PWs)   bands (ev):

   -56.9410 -33.0906 -32.9414 -32.7729 -12.6770 -12.6604  -4.1946  -3.8150
    -3.5755  -3.3137  -2.3880  -1.3252  -1.0238  -0.6003  -0.2694   0.4079
     0.7055   1.3425   5.5990   5.8981   6.3596   6.8195   7.1934   7.4491
     8.0514   8.4660  10.0833  10.1837  10.8290  10.9260

     occupation numbers 
     1.0000   1.0000   1.0000   1.0000   1.0000   1.0000   1.0000   1.0000
     1.0000   1.0000   1.0000   1.0041   1.0316   0.1438  -0.0189  -0.0000
    -0.0000  -0.0000  -0.0000  -0.0000  -0.0000  -0.0000  -0.0000  -0.0000
    -0.0000  -0.0000  -0.0000  -0.0000  -0.0000  -0.0000

          k = 0.4000 0.2309 0.0000 (  4522 PWs)   bands (ev):

   -56.9362 -33.0845 -32.9864 -32.7839 -12.4475 -12.4446  -4.5672  -4.3444
    -3.5364  -3.3025  -2.3654  -1.4726  -1.1417  -0.3043  -0.1414   0.3586
     1.1686   1.5577   5.3294   5.4985   6.6751   7.0865   7.3226   7.3756
     8.2646   9.2440   9.6052   9.6363  10.4430  10.9455

     occupation numbers 
     1.0000   1.0000   1.0000   1.0000   1.0000   1.0000   1.0000   1.0000
     1.0000   1.0000   1.0000   1.0004   1.0270  -0.0248  -0.0046  -0.0000
    -0.0000  -0.0000  -0.0000  -0.0000  -0.0000  -0.0000  -0.0000  -0.0000
    -0.0000  -0.0000  -0.0000  -0.0000  -0.0000  -0.0000

          k = 0.4667 0.2694 0.0000 (  4528 PWs)   bands (ev):

   -56.9336 -33.0810 -33.0110 -32.7900 -12.3170 -12.3113  -4.8492  -4.6512
    -3.4876  -3.2801  -2.2876  -1.5495  -1.2067  -0.3075   0.0358   0.3309
     1.4584   1.9973   4.8110   5.1426   6.5389   6.9308   7.9271   8.1908
     8.7578   9.2482   9.3095   9.3241  10.1640  10.2609

     occupation numbers 
     1.0000   1.0000   1.0000   1.0000   1.0000   1.0000   1.0000   1.0000
     1.0000   1.0000   1.0000   1.0001   1.0163  -0.0253  -0.0003  -0.0000
    -0.0000  -0.0000  -0.0000  -0.0000  -0.0000  -0.0000  -0.0000  -0.0000
    -0.0000  -0.0000  -0.0000  -0.0000  -0.0000  -0.0000

 ------ SPIN DOWN ----------


          k = 0.0000 0.0000 0.0000 (  4457 PWs)   bands (ev):

   -56.5492 -32.8654 -32.1458 -32.1458 -13.5949 -13.5322  -5.2050  -3.8080
    -2.6546  -0.6794  -0.6794  -0.3636  -0.3636   0.0817   0.0817   0.8928
     0.8928   1.2182   3.8859   4.4628   5.4363   5.6284   7.2842   7.7546
     7.8106   8.6152  10.2752  10.2752  10.6039  10.6040

     occupation numbers 
     1.0000   1.0000   1.0000   1.0000   1.0000   1.0000   1.0000   1.0000
     1.0000   0.3468   0.3468  -0.0336  -0.0336  -0.0001  -0.0001  -0.0000
    -0.0000  -0.0000  -0.0000  -0.0000  -0.0000  -0.0000  -0.0000  -0.0000
    -0.0000  -0.0000  -0.0000  -0.0000  -0.0000  -0.0000

          k = 0.0667 0.0385 0.0000 (  4451 PWs)   bands (ev):

   -56.5479 -32.8635 -32.1584 -32.1489 -13.5512 -13.4908  -5.1241  -3.7827
    -2.5842  -0.8796  -0.6525  -0.6074  -0.4301  -0.0902   0.0864   0.7880
     0.8921   1.2985   4.0437   4.5338   5.5369   5.6933   7.3279   7.9812
     8.0225   8.6607  10.0097  10.2855  10.4347  10.6780

     occupation numbers 
     1.0000   1.0000   1.0000   1.0000   1.0000   1.0000   1.0000   1.0000
     1.0000   0.8970   0.2707   0.1592  -0.0327  -0.0022  -0.0001  -0.0000
    -0.0000  -0.0000  -0.0000  -0.0000  -0.0000  -0.0000  -0.0000  -0.0000
    -0.0000  -0.0000  -0.0000  -0.0000  -0.0000  -0.0000

          k = 0.1333 0.0770 0.0000 (  4454 PWs)   bands (ev):

   -56.5441 -32.8589 -32.1946 -32.1575 -13.4239 -13.3702  -4.8944  -3.7116
    -2.3860  -1.4512  -1.2469  -0.6346  -0.6041  -0.3942   0.1716   0.5639
     0.8808   1.4167   4.4297   4.7449   5.7945   5.8865   7.4151   8.4195
     8.4463   8.7747   9.6141   9.8149  10.4828  10.8694

     occupation numbers 
     1.0000   1.0000   1.0000   1.0000   1.0000   1.0000   1.0000   1.0000
     1.0000   1.0006   1.0109   0.2237   0.1521  -0.0354  -0.0000  -0.0000
    -0.0000  -0.0000  -0.0000  -0.0000  -0.0000  -0.0000  -0.0000  -0.0000
    -0.0000  -0.0000  -0.0000  -0.0000  -0.0000  -0.0000

          k = 0.2000 0.1155 0.0000 (  4482 PWs)   bands (ev):

   -56.5388 -32.8524 -32.2480 -32.1702 -13.2250 -13.1816  -4.5555  -3.6094
    -2.2757  -2.0793  -2.0733  -0.8332  -0.7201  -0.6180   0.3282   0.4484
     0.8471   1.4818   4.9372   5.0894   6.0619   6.2013   7.5291   8.2154
     8.2660   8.8882   9.9177  10.1173  10.4370  10.8703

     occupation numbers 
     1.0000   1.0000   1.0000   1.0000   1.0000   1.0000   1.0000   1.0000
     1.0000   1.0000   1.0000   0.7978   0.4705   0.1832  -0.0000  -0.0000
    -0.0000  -0.0000  -0.0000  -0.0000  -0.0000  -0.0000  -0.0000  -0.0000
    -0.0000  -0.0000  -0.0000  -0.0000  -0.0000  -0.0000

          k = 0.2667 0.1540 0.0000 (  4504 PWs)   bands (ev):

   -56.5326 -32.8444 -32.3089 -32.1849 -12.9763 -12.9462  -4.1878  -3.5155
    -3.0381  -2.9119  -1.9321  -1.0676  -0.8767  -0.5573   0.1335   0.7943
     0.8892   1.4989   5.5024   5.5412   6.1158   6.6030   7.6441   7.6912
     7.9057   8.6828  10.1356  10.4682  10.9643  11.0134

     occupation numbers 
     1.0000   1.0000   1.0000   1.0000   1.0000   1.0000   1.0000   1.0000
     1.0000   1.0000   1.0000   1.0354   0.8916   0.0657  -0.0000  -0.0000
    -0.0000  -0.0000  -0.0000  -0.0000  -0.0000  -0.0000  -0.0000  -0.0000
    -0.0000  -0.0000  -0.0000  -0.0000  -0.0000  -0.0000

          k = 0.3333 0.1925 0.0000 (  4514 PWs)   bands (ev):

   -56.5267 -32.8366 -32.3662 -32.1992 -12.7131 -12.6974  -4.1047  -3.7934
    -3.4756  -3.2852  -1.9566  -1.2708  -1.0376  -0.1561   0.0031   0.7355
     1.4021   1.5470   5.6637   5.9491   6.3785   6.8889   7.2053   7.4546
     8.1936   8.4809  10.1875  10.3863  10.8690  10.9318

     occupation numbers 
     1.0000   1.0000   1.0000   1.0000   1.0000   1.0000   1.0000   1.0000
     1.0000   1.0000   1.0000   1.0083   1.0340  -0.0056  -0.0005  -0.0000
    -0.0000  -0.0000  -0.0000  -0.0000  -0.0000  -0.0000  -0.0000  -0.0000
    -0.0000  -0.0000  -0.0000  -0.0000  -0.0000  -0.0000

          k = 0.4000 0.2309 0.0000 (  4522 PWs)   bands (ev):

   -56.5220 -32.8307 -32.4107 -32.2101 -12.4850 -12.4824  -4.5338  -4.3390
    -3.3242  -3.2314  -2.0032  -1.4183  -1.1623  -0.0638   0.2161   0.6864
     1.8271   1.8754   5.3934   5.7494   6.6799   7.1120   7.3415   7.4368
     8.3196   9.2650   9.6919   9.8495  10.4548  10.9589

     occupation numbers 
     1.0000   1.0000   1.0000   1.0000   1.0000   1.0000   1.0000   1.0000
     1.0000   1.0000   1.0000   1.0010   1.0235  -0.0015  -0.0000  -0.0000
    -0.0000  -0.0000  -0.0000  -0.0000  -0.0000  -0.0000  -0.0000  -0.0000
    -0.0000  -0.0000  -0.0000  -0.0000  -0.0000  -0.0000

          k = 0.4667 0.2694 0.0000 (  4528 PWs)   bands (ev):

   -56.5194 -32.8272 -32.4350 -32.2160 -12.3553 -12.3498  -4.8258  -4.6486
    -3.2038  -3.1899  -1.9980  -1.4954  -1.2295  -0.0870   0.3252   0.6588
     2.1702   2.3055   5.1995   5.2068   6.5456   6.9493   7.9857   8.2050
     8.7864   9.3226   9.3265   9.5161  10.1745  10.2794

     occupation numbers 
     1.0000   1.0000   1.0000   1.0000   1.0000   1.0000   1.0000   1.0000
     1.0000   1.0000   1.0000   1.0003   1.0130  -0.0021  -0.0000  -0.0000
    -0.0000  -0.0000  -0.0000  -0.0000  -0.0000  -0.0000  -0.0000  -0.0000
    -0.0000  -0.0000  -0.0000  -0.0000  -0.0000  -0.0000

     the Fermi energy is    -0.7296 ev

!    total energy              =    -159.48675617 Ry
     estimated scf accuracy    <          5.1E-09 Ry
     smearing contrib. (-TS)   =      -0.00030994 Ry
     internal energy E=F+TS    =    -159.48644623 Ry

     The total energy is F=E-TS. E is the sum of the following terms:
     one-electron contribution =    -692.06026048 Ry
     hartree contribution      =     346.29281113 Ry
     xc contribution           =     -27.95387014 Ry
     ewald contribution        =     214.23487326 Ry

     total magnetization       =     0.74 Bohr mag/cell
     absolute magnetization    =     0.89 Bohr mag/cell

     convergence has been achieved in  15 iterations

     Writing output data file ./tmp/NbS2.save/

     init_run     :      5.58s CPU      5.98s WALL (       1 calls)
     electrons    :    152.95s CPU    163.41s WALL (       1 calls)

     Called by init_run:
     wfcinit      :      1.06s CPU      1.07s WALL (       1 calls)
     wfcinit:atom :      0.01s CPU      0.01s WALL (      16 calls)
     wfcinit:wfcr :      1.00s CPU      1.02s WALL (      16 calls)
     potinit      :      1.74s CPU      1.85s WALL (       1 calls)
     hinit0       :      1.20s CPU      1.22s WALL (       1 calls)

     Called by electrons:
     c_bands      :     48.29s CPU     48.83s WALL (      16 calls)
     sum_band     :     64.28s CPU     69.29s WALL (      16 calls)
     v_of_rho     :     17.11s CPU     18.14s WALL (      16 calls)
     v_h          :      0.82s CPU      0.91s WALL (      16 calls)
     v_xc         :     16.29s CPU     17.24s WALL (      16 calls)
     newd         :     21.16s CPU     25.26s WALL (      16 calls)
     mix_rho      :      2.82s CPU      2.90s WALL (      16 calls)

     Called by c_bands:
     init_us_2    :      0.48s CPU      0.48s WALL (     528 calls)
     cegterg      :     47.29s CPU     47.82s WALL (     256 calls)

     Called by sum_band:
     sum_band:wei :      0.01s CPU      0.01s WALL (      16 calls)
     sum_band:loo :      7.34s CPU      7.41s WALL (      16 calls)
     sum_band:buf :      0.11s CPU      0.11s WALL (     256 calls)
     sum_band:ini :      0.22s CPU      0.22s WALL (     256 calls)
     sum_band:cal :      1.21s CPU      1.23s WALL (     256 calls)
     sum_band:bec :      0.01s CPU      0.01s WALL (     256 calls)
     addusdens    :     54.91s CPU     59.75s WALL (      16 calls)
     addusd:skk   :      0.06s CPU      0.07s WALL (      32 calls)
     addusd:dgemm :     14.72s CPU     18.71s WALL (      64 calls)
     addusd:qvan2 :     38.78s CPU     38.79s WALL (      64 calls)

     Called by *egterg:
     cdiaghg      :      1.17s CPU      1.18s WALL (    1068 calls)
     cegterg:over :      4.17s CPU      4.19s WALL (     828 calls)
     cegterg:upda :      2.26s CPU      2.26s WALL (     828 calls)
     cegterg:last :      6.34s CPU      6.36s WALL (     514 calls)
     h_psi        :     29.61s CPU     30.11s WALL (    1100 calls)
     s_psi        :      2.27s CPU      2.27s WALL (    1100 calls)
     g_psi        :      0.10s CPU      0.11s WALL (     828 calls)

     Called by h_psi:
     h_psi:calbec :      3.04s CPU      3.07s WALL (    1100 calls)
     vloc_psi     :     24.06s CPU     24.51s WALL (    1100 calls)
     add_vuspsi   :      2.29s CPU      2.29s WALL (    1100 calls)

     General routines
     calbec       :      4.25s CPU      4.29s WALL (    1356 calls)
     fft          :     15.29s CPU     15.80s WALL (     396 calls)
     ffts         :      0.09s CPU      0.09s WALL (      64 calls)
     fftw         :     26.54s CPU     26.99s WALL (   45174 calls)
     interpolate  :      1.40s CPU      1.42s WALL (      32 calls)

     Parallel routines
     fft_scatt_xy :      4.64s CPU      4.70s WALL (   45634 calls)
     fft_scatt_yz :      7.21s CPU      7.66s WALL (   45634 calls)

     PWSCF        :   2m39.56s CPU   2m50.49s WALL


   This run was terminated on:  21:53:19  28Jan2021            

=------------------------------------------------------------------------------=
   JOB DONE.
=------------------------------------------------------------------------------=
