
     Program PROJWFC v.6.6 starts on 28Jan2021 at 22: 0:13 

     This program is part of the open-source Quantum ESPRESSO suite
     for quantum simulation of materials; please cite
         "P. Giannozzi et al., J. Phys.:Condens. Matter 21 395502 (2009);
         "P. Giannozzi et al., J. Phys.:Condens. Matter 29 465901 (2017);
          URL http://www.quantum-espresso.org", 
     in publications or presentations arising from this work. More details at
     http://www.quantum-espresso.org/quote

     Parallel version (MPI), running on     1 processors

     MPI processes distributed on     1 nodes
     Fft bands division:     nmany     =       1

     Reading xml data from directory:

     ./tmp/NbS2.save/
     Message from routine  set_nelup_neldw :
     BEWARE: non-integer number of up and down electrons!
     file Nb.pbe-spn-rrkjus_psl.1.0.0.UPF: wavefunction(s)  4S 4P renormalized

     IMPORTANT: XC functional enforced from input :
     Exchange-correlation= PBE
                           (   1   4   3   4   0   0   0)
     Any further DFT definition will be discarded
     Please, verify this is what you really want


     G-vector sticks info
     --------------------
     sticks:   dense  smooth     PW     G-vecs:    dense   smooth      PW
     Sum        1945     379    121               420383    36041    6031


     Gaussian broadening (read from file): ngauss,degauss=   1    0.020000


     Calling projwave .... 

  Problem Sizes 
  natomwfc =           21
  nbnd     =           30
  nkstot   =           52
  npwx     =         4524
  nkb      =           34


     Atomic states used for projection
     (read from pseudopotential files):

     state #   1: atom   1 (S  ), wfc  1 (l=0 m= 1)
     state #   2: atom   1 (S  ), wfc  2 (l=1 m= 1)
     state #   3: atom   1 (S  ), wfc  2 (l=1 m= 2)
     state #   4: atom   1 (S  ), wfc  2 (l=1 m= 3)
     state #   5: atom   2 (Nb ), wfc  1 (l=0 m= 1)
     state #   6: atom   2 (Nb ), wfc  2 (l=0 m= 1)
     state #   7: atom   2 (Nb ), wfc  3 (l=1 m= 1)
     state #   8: atom   2 (Nb ), wfc  3 (l=1 m= 2)
     state #   9: atom   2 (Nb ), wfc  3 (l=1 m= 3)
     state #  10: atom   2 (Nb ), wfc  4 (l=1 m= 1)
     state #  11: atom   2 (Nb ), wfc  4 (l=1 m= 2)
     state #  12: atom   2 (Nb ), wfc  4 (l=1 m= 3)
     state #  13: atom   2 (Nb ), wfc  5 (l=2 m= 1)
     state #  14: atom   2 (Nb ), wfc  5 (l=2 m= 2)
     state #  15: atom   2 (Nb ), wfc  5 (l=2 m= 3)
     state #  16: atom   2 (Nb ), wfc  5 (l=2 m= 4)
     state #  17: atom   2 (Nb ), wfc  5 (l=2 m= 5)
     state #  18: atom   3 (S  ), wfc  1 (l=0 m= 1)
     state #  19: atom   3 (S  ), wfc  2 (l=1 m= 1)
     state #  20: atom   3 (S  ), wfc  2 (l=1 m= 2)
     state #  21: atom   3 (S  ), wfc  2 (l=1 m= 3)

 k =   0.0000000000  0.0000000000  0.0000000000
==== e(   1) =   -56.96326 eV ==== 
     psi = 0.978*[#   5]+0.017*[#   6]+0.003*[#  13]
    |psi|^2 = 1.000
==== e(   2) =   -33.11897 eV ==== 

    |psi|^2 = 0.000
==== e(   3) =   -32.71766 eV ==== 
     psi = 0.991*[#   7]+0.487*[#   8]+0.487*[#   9]+0.013*[#  11]+0.013*[#  12]
          +0.007*[#  10]
    |psi|^2 = 2.000
==== e(   4) =   -32.71766 eV ==== 
     psi = 0.487*[#   8]+0.487*[#   9]+0.013*[#  11]+0.013*[#  12]
    |psi|^2 = 1.000
==== e(   5) =   -13.56389 eV ==== 
     psi = 0.438*[#   1]+0.438*[#  18]+0.109*[#   6]+0.014*[#  13]+0.001*[#   5]
          
    |psi|^2 = 1.000
==== e(   6) =   -13.49777 eV ==== 
     psi = 0.356*[#   1]+0.356*[#  18]
    |psi|^2 = 0.712
==== e(   7) =    -5.42098 eV ==== 
     psi = 0.495*[#   6]+0.285*[#  10]+0.074*[#  13]+0.025*[#   1]+0.025*[#  18]
          +0.018*[#   5]+0.002*[#   7]
    |psi|^2 = 0.925
==== e(   8) =    -3.78689 eV ==== 
     psi = 0.013*[#   1]+0.013*[#  18]
    |psi|^2 = 0.027
==== e(   9) =    -2.95581 eV ==== 
     psi = 0.611*[#  13]+0.173*[#   2]+0.173*[#  19]+0.039*[#   6]+0.002*[#   5]
          
    |psi|^2 = 0.999
==== e(  10) =    -1.21405 eV ==== 
     psi = 0.444*[#  16]+0.444*[#  17]+0.027*[#   3]+0.027*[#   4]+0.027*[#  20]
          +0.027*[#  21]
    |psi|^2 = 0.999
==== e(  11) =    -1.21405 eV ==== 
     psi = 0.444*[#  16]+0.444*[#  17]+0.027*[#   3]+0.027*[#   4]+0.027*[#  20]
          +0.027*[#  21]
    |psi|^2 = 0.999
==== e(  12) =    -0.40398 eV ==== 
     psi = 0.193*[#   3]+0.193*[#   4]+0.193*[#  20]+0.193*[#  21]+0.112*[#  14]
          +0.112*[#  15]+0.002*[#   2]+0.002*[#  19]
    |psi|^2 = 1.002
==== e(  13) =    -0.40398 eV ==== 
     psi = 0.193*[#   3]+0.193*[#   4]+0.193*[#  20]+0.193*[#  21]+0.112*[#  14]
          +0.112*[#  15]
    |psi|^2 = 0.998
==== e(  14) =    -0.06125 eV ==== 
     psi = 0.222*[#   3]+0.222*[#   4]+0.222*[#  20]+0.222*[#  21]+0.146*[#   2]
          +0.146*[#  19]+0.055*[#  16]+0.055*[#  17]+0.001*[#  11]+0.001*[#  12]
          
    |psi|^2 = 1.291
==== e(  15) =    -0.06125 eV ==== 
     psi = 0.222*[#   3]+0.222*[#   4]+0.222*[#  20]+0.222*[#  21]+0.055*[#  16]
          +0.055*[#  17]+0.001*[#  11]+0.001*[#  12]
    |psi|^2 = 0.999
==== e(  16) =     0.55250 eV ==== 
     psi = 0.387*[#  14]+0.387*[#  15]+0.230*[#   2]+0.230*[#  19]+0.056*[#   3]
          +0.056*[#   4]+0.056*[#  20]+0.056*[#  21]+0.001*[#  10]
    |psi|^2 = 1.460
==== e(  17) =     0.55250 eV ==== 
     psi = 0.387*[#  14]+0.387*[#  15]+0.056*[#   3]+0.056*[#   4]+0.056*[#  20]
          +0.056*[#  21]
    |psi|^2 = 0.999
==== e(  18) =     1.05292 eV ==== 
     psi = 0.320*[#   6]+0.293*[#  13]+0.062*[#   2]+0.062*[#  19]+0.035*[#   1]
          +0.035*[#  18]
    |psi|^2 = 0.807
==== e(  19) =     3.83036 eV ==== 
     psi = 0.146*[#   2]+0.146*[#  19]+0.069*[#   1]+0.069*[#  18]
    |psi|^2 = 0.430
==== e(  20) =     4.46265 eV ==== 
     psi = 0.003*[#   6]+0.002*[#  13]
    |psi|^2 = 0.005
==== e(  21) =     5.38331 eV ==== 
     psi = 0.180*[#  10]+0.038*[#   1]+0.038*[#  18]+0.018*[#   2]+0.018*[#  19]
          
    |psi|^2 = 0.293
==== e(  22) =     5.63034 eV ==== 
     psi = 0.002*[#   6]
    |psi|^2 = 0.003
==== e(  23) =     7.28073 eV ==== 
     psi = 0.008*[#   1]+0.008*[#  18]
    |psi|^2 = 0.016
==== e(  24) =     7.75479 eV ==== 
     psi = 0.010*[#   6]+0.001*[#   1]+0.001*[#  18]
    |psi|^2 = 0.013
==== e(  25) =     7.80892 eV ==== 
     psi = 0.061*[#  10]+0.013*[#   1]+0.013*[#  18]
    |psi|^2 = 0.088
==== e(  26) =     8.61631 eV ==== 

    |psi|^2 = 0.000
==== e(  27) =    10.26722 eV ==== 
     psi = 0.139*[#  11]+0.139*[#  12]+0.004*[#   8]+0.004*[#   9]
    |psi|^2 = 0.285
==== e(  28) =    10.26722 eV ==== 
     psi = 0.139*[#  11]+0.139*[#  12]+0.004*[#   8]+0.004*[#   9]
    |psi|^2 = 0.285
==== e(  29) =    10.60545 eV ==== 

    |psi|^2 = 0.001
==== e(  30) =    10.60545 eV ==== 

    |psi|^2 = 0.001

 k =   0.0200000000  0.0115470054  0.0000000000
==== e(   1) =   -56.96318 eV ==== 
     psi = 0.977*[#   5]+0.017*[#   6]+0.003*[#  13]+0.001*[#  11]+0.001*[#  12]
          
    |psi|^2 = 1.000
==== e(   2) =   -33.11886 eV ==== 
     psi = 0.002*[#  10]
    |psi|^2 = 0.002
==== e(   3) =   -32.71900 eV ==== 
     psi = 0.991*[#   7]+0.487*[#   8]+0.487*[#   9]+0.012*[#  11]+0.012*[#  12]
          +0.007*[#  10]
    |psi|^2 = 2.000
==== e(   4) =   -32.71801 eV ==== 
     psi = 0.487*[#   8]+0.487*[#   9]+0.013*[#  11]+0.013*[#  12]
    |psi|^2 = 1.000
==== e(   5) =   -13.55992 eV ==== 
     psi = 0.437*[#   1]+0.437*[#  18]+0.107*[#   6]+0.014*[#  13]+0.001*[#   5]
          
    |psi|^2 = 1.000
==== e(   6) =   -13.49402 eV ==== 
     psi = 0.356*[#   1]+0.356*[#  18]+0.001*[#  10]
    |psi|^2 = 0.714
==== e(   7) =    -5.41307 eV ==== 
     psi = 0.491*[#   6]+0.285*[#  10]+0.074*[#  13]+0.025*[#   1]+0.025*[#  18]
          +0.018*[#   5]+0.002*[#   7]+0.002*[#  11]+0.002*[#  12]
    |psi|^2 = 0.924
==== e(   8) =    -3.78486 eV ==== 
     psi = 0.013*[#   1]+0.013*[#  18]
    |psi|^2 = 0.028
==== e(   9) =    -2.94998 eV ==== 
     psi = 0.611*[#  13]+0.173*[#   2]+0.173*[#  19]+0.039*[#   6]+0.002*[#   5]
          
    |psi|^2 = 0.999
==== e(  10) =    -1.22458 eV ==== 
     psi = 0.442*[#  16]+0.442*[#  17]+0.028*[#   3]+0.028*[#   4]+0.028*[#  20]
          +0.028*[#  21]
    |psi|^2 = 0.999
==== e(  11) =    -1.20783 eV ==== 
     psi = 0.443*[#  16]+0.443*[#  17]+0.028*[#   3]+0.028*[#   4]+0.028*[#  20]
          +0.028*[#  21]
    |psi|^2 = 0.999
==== e(  12) =    -0.42475 eV ==== 
     psi = 0.195*[#   3]+0.195*[#   4]+0.195*[#  20]+0.195*[#  21]+0.109*[#  14]
          +0.109*[#  15]+0.043*[#   2]+0.043*[#  19]
    |psi|^2 = 1.083
==== e(  13) =    -0.41053 eV ==== 
     psi = 0.193*[#   3]+0.193*[#   4]+0.193*[#  20]+0.193*[#  21]+0.113*[#  14]
          +0.113*[#  15]
    |psi|^2 = 0.998
==== e(  14) =    -0.08726 eV ==== 
     psi = 0.219*[#   3]+0.219*[#   4]+0.219*[#  20]+0.219*[#  21]+0.097*[#   2]
          +0.097*[#  19]+0.058*[#  16]+0.058*[#  17]+0.002*[#   6]+0.001*[#  13]
          
    |psi|^2 = 1.190
==== e(  15) =    -0.06481 eV ==== 
     psi = 0.221*[#   3]+0.221*[#   4]+0.221*[#  20]+0.221*[#  21]+0.056*[#  16]
          +0.056*[#  17]+0.001*[#   2]+0.001*[#  19]+0.001*[#  11]+0.001*[#  12]
          
    |psi|^2 = 1.002
==== e(  16) =     0.54077 eV ==== 
     psi = 0.389*[#  14]+0.389*[#  15]+0.328*[#   2]+0.328*[#  19]+0.054*[#   3]
          +0.054*[#   4]+0.054*[#  20]+0.054*[#  21]+0.001*[#  10]
    |psi|^2 = 1.653
==== e(  17) =     0.55279 eV ==== 
     psi = 0.386*[#  14]+0.386*[#  15]+0.056*[#   3]+0.056*[#   4]+0.056*[#  20]
          +0.056*[#  21]
    |psi|^2 = 0.999
==== e(  18) =     1.06252 eV ==== 
     psi = 0.316*[#   6]+0.291*[#  13]+0.034*[#   1]+0.034*[#  18]+0.028*[#   2]
          +0.028*[#  19]+0.002*[#   3]+0.002*[#   4]+0.002*[#  20]+0.002*[#  21]
          
    |psi|^2 = 0.742
==== e(  19) =     3.84553 eV ==== 
     psi = 0.145*[#   2]+0.145*[#  19]+0.068*[#   1]+0.068*[#  18]
    |psi|^2 = 0.428
==== e(  20) =     4.46907 eV ==== 
     psi = 0.003*[#   2]+0.003*[#   6]+0.003*[#  19]+0.002*[#  13]+0.001*[#  10]
          
    |psi|^2 = 0.012
==== e(  21) =     5.39211 eV ==== 
     psi = 0.181*[#  10]+0.038*[#   1]+0.038*[#  18]+0.018*[#   2]+0.018*[#  19]
          
    |psi|^2 = 0.296
==== e(  22) =     5.63620 eV ==== 
     psi = 0.002*[#   6]
    |psi|^2 = 0.004
==== e(  23) =     7.28484 eV ==== 
     psi = 0.008*[#   1]+0.008*[#  18]
    |psi|^2 = 0.016
==== e(  24) =     7.77638 eV ==== 
     psi = 0.009*[#   6]+0.002*[#  11]+0.002*[#  12]+0.001*[#   1]+0.001*[#  18]
          
    |psi|^2 = 0.015
==== e(  25) =     7.82943 eV ==== 
     psi = 0.062*[#  10]+0.013*[#   1]+0.013*[#  18]
    |psi|^2 = 0.090
==== e(  26) =     8.62055 eV ==== 

    |psi|^2 = 0.001
==== e(  27) =    10.23851 eV ==== 
     psi = 0.134*[#  11]+0.134*[#  12]+0.003*[#   8]+0.003*[#   9]+0.003*[#   6]
          
    |psi|^2 = 0.279
==== e(  28) =    10.28117 eV ==== 
     psi = 0.138*[#  11]+0.138*[#  12]+0.004*[#   8]+0.004*[#   9]
    |psi|^2 = 0.285
==== e(  29) =    10.57056 eV ==== 

    |psi|^2 = 0.001
==== e(  30) =    10.62023 eV ==== 

    |psi|^2 = 0.001

 k =   0.0400000000  0.0230940108  0.0000000000
==== e(   1) =   -56.96280 eV ==== 
     psi = 0.973*[#   5]+0.015*[#   6]+0.004*[#  11]+0.004*[#  12]+0.003*[#  13]
          
    |psi|^2 = 1.000
==== e(   2) =   -33.11834 eV ==== 
     psi = 0.006*[#  10]
    |psi|^2 = 0.006
==== e(   3) =   -32.72248 eV ==== 
     psi = 0.992*[#   7]+0.488*[#   8]+0.488*[#   9]+0.011*[#  11]+0.011*[#  12]
          +0.006*[#  10]+0.001*[#   6]
    |psi|^2 = 2.000
==== e(   4) =   -32.71895 eV ==== 
     psi = 0.487*[#   8]+0.487*[#   9]+0.013*[#  11]+0.013*[#  12]
    |psi|^2 = 1.000
==== e(   5) =   -13.54803 eV ==== 
     psi = 0.436*[#   1]+0.436*[#  18]+0.103*[#   6]+0.014*[#  13]+0.003*[#  11]
          +0.003*[#  12]+0.001*[#   5]
    |psi|^2 = 1.000
==== e(   6) =   -13.48278 eV ==== 
     psi = 0.357*[#   1]+0.357*[#  18]+0.005*[#  10]
    |psi|^2 = 0.722
==== e(   7) =    -5.38934 eV ==== 
     psi = 0.481*[#   6]+0.282*[#  10]+0.072*[#  13]+0.025*[#   1]+0.025*[#  18]
          +0.018*[#   5]+0.007*[#  11]+0.007*[#  12]+0.002*[#   7]
    |psi|^2 = 0.920
==== e(   8) =    -3.77881 eV ==== 
     psi = 0.013*[#   1]+0.013*[#  18]+0.002*[#  14]+0.002*[#  15]
    |psi|^2 = 0.031
==== e(   9) =    -2.93255 eV ==== 
     psi = 0.613*[#  13]+0.171*[#   2]+0.171*[#  19]+0.039*[#   6]+0.002*[#   5]
          
    |psi|^2 = 0.999
==== e(  10) =    -1.25607 eV ==== 
     psi = 0.434*[#  16]+0.434*[#  17]+0.032*[#   3]+0.032*[#   4]+0.032*[#  20]
          +0.032*[#  21]+0.001*[#   6]+0.001*[#  13]+0.001*[#  10]
    |psi|^2 = 0.999
==== e(  11) =    -1.18908 eV ==== 
     psi = 0.440*[#  16]+0.440*[#  17]+0.030*[#   3]+0.030*[#   4]+0.030*[#  20]
          +0.030*[#  21]
    |psi|^2 = 0.999
==== e(  12) =    -0.48667 eV ==== 
     psi = 0.198*[#   3]+0.198*[#   4]+0.198*[#  20]+0.198*[#  21]+0.100*[#  14]
          +0.100*[#  15]+0.048*[#   2]+0.048*[#  19]+0.001*[#   1]+0.001*[#  18]
          
    |psi|^2 = 1.090
==== e(  13) =    -0.42984 eV ==== 
     psi = 0.193*[#   3]+0.193*[#   4]+0.193*[#  20]+0.193*[#  21]+0.114*[#  14]
          +0.114*[#  15]
    |psi|^2 = 0.998
==== e(  14) =    -0.16109 eV ==== 
     psi = 0.210*[#   3]+0.210*[#   4]+0.210*[#  20]+0.210*[#  21]+0.096*[#   2]
          +0.096*[#  19]+0.066*[#  16]+0.066*[#  17]+0.007*[#   6]+0.004*[#  13]
          +0.003*[#   1]+0.003*[#  18]
    |psi|^2 = 1.183
==== e(  15) =    -0.07522 eV ==== 
     psi = 0.219*[#   3]+0.219*[#   4]+0.219*[#  20]+0.219*[#  21]+0.060*[#  16]
          +0.060*[#  17]+0.004*[#   2]+0.004*[#  19]+0.001*[#  11]+0.001*[#  12]
          
    |psi|^2 = 1.008
==== e(  16) =     0.50793 eV ==== 
     psi = 0.395*[#  14]+0.395*[#  15]+0.315*[#   2]+0.315*[#  19]+0.049*[#   3]
          +0.049*[#   4]+0.049*[#  20]+0.049*[#  21]+0.002*[#   1]+0.002*[#  18]
          
    |psi|^2 = 1.621
==== e(  17) =     0.55361 eV ==== 
     psi = 0.385*[#  14]+0.385*[#  15]+0.057*[#   3]+0.057*[#   4]+0.057*[#  20]
          +0.057*[#  21]
    |psi|^2 = 0.999
==== e(  18) =     1.08851 eV ==== 
     psi = 0.304*[#   6]+0.287*[#  13]+0.032*[#   1]+0.032*[#  18]+0.029*[#   2]
          +0.029*[#  19]+0.007*[#   3]+0.007*[#   4]+0.007*[#  20]+0.007*[#  21]
          +0.003*[#  11]+0.003*[#  12]
    |psi|^2 = 0.747
==== e(  19) =     3.88994 eV ==== 
     psi = 0.142*[#   2]+0.142*[#  19]+0.065*[#   1]+0.065*[#  18]+0.002*[#  14]
          +0.002*[#  15]+0.001*[#   3]+0.001*[#   4]+0.001*[#  20]+0.001*[#  21]
          
    |psi|^2 = 0.423
==== e(  20) =     4.48831 eV ==== 
     psi = 0.010*[#   2]+0.010*[#  19]+0.005*[#  10]+0.003*[#   6]+0.002*[#  13]
          
    |psi|^2 = 0.030
==== e(  21) =     5.41820 eV ==== 
     psi = 0.186*[#  10]+0.038*[#   1]+0.038*[#  18]+0.019*[#   2]+0.019*[#  19]
          
    |psi|^2 = 0.303
==== e(  22) =     5.65376 eV ==== 
     psi = 0.002*[#   6]+0.001*[#   2]+0.001*[#  19]
    |psi|^2 = 0.006
==== e(  23) =     7.29661 eV ==== 
     psi = 0.007*[#   1]+0.007*[#  18]
    |psi|^2 = 0.015
==== e(  24) =     7.83986 eV ==== 
     psi = 0.006*[#   6]+0.006*[#  11]+0.006*[#  12]+0.001*[#   1]+0.001*[#  18]
          
    |psi|^2 = 0.023
==== e(  25) =     7.88993 eV ==== 
     psi = 0.065*[#  10]+0.013*[#   1]+0.013*[#  18]
    |psi|^2 = 0.094
==== e(  26) =     8.63308 eV ==== 

    |psi|^2 = 0.004
==== e(  27) =    10.15827 eV ==== 
     psi = 0.122*[#  11]+0.122*[#  12]+0.009*[#   6]+0.003*[#   8]+0.003*[#   9]
          +0.001*[#   5]
    |psi|^2 = 0.263
==== e(  28) =    10.32403 eV ==== 
     psi = 0.138*[#  11]+0.138*[#  12]+0.004*[#   8]+0.004*[#   9]+0.001*[#  10]
          
    |psi|^2 = 0.285
==== e(  29) =    10.47565 eV ==== 

    |psi|^2 = 0.001
==== e(  30) =    10.66604 eV ==== 

    |psi|^2 = 0.001

 k =   0.0600000000  0.0346410162  0.0000000000
==== e(   1) =   -56.96211 eV ==== 
     psi = 0.967*[#   5]+0.011*[#   6]+0.009*[#  11]+0.009*[#  12]+0.002*[#  13]
          
    |psi|^2 = 1.000
==== e(   2) =   -33.11743 eV ==== 
     psi = 0.013*[#  10]
    |psi|^2 = 0.014
==== e(   3) =   -32.72810 eV ==== 
     psi = 0.992*[#   7]+0.489*[#   8]+0.489*[#   9]+0.010*[#  11]+0.010*[#  12]
          +0.006*[#  10]+0.003*[#   6]
    |psi|^2 = 2.000
==== e(   4) =   -32.72027 eV ==== 
     psi = 0.487*[#   8]+0.487*[#   9]+0.012*[#  11]+0.012*[#  12]
    |psi|^2 = 1.000
==== e(   5) =   -13.52830 eV ==== 
     psi = 0.435*[#   1]+0.435*[#  18]+0.096*[#   6]+0.014*[#  13]+0.007*[#  11]
          +0.007*[#  12]+0.002*[#   5]
    |psi|^2 = 1.000
==== e(   6) =   -13.46414 eV ==== 
     psi = 0.359*[#   1]+0.359*[#  18]+0.011*[#  10]+0.001*[#   2]+0.001*[#  19]
          
    |psi|^2 = 0.733
==== e(   7) =    -5.35014 eV ==== 
     psi = 0.464*[#   6]+0.278*[#  10]+0.068*[#  13]+0.025*[#   1]+0.025*[#  18]
          +0.018*[#   5]+0.015*[#  11]+0.015*[#  12]+0.002*[#   7]
    |psi|^2 = 0.913
==== e(   8) =    -3.76887 eV ==== 
     psi = 0.013*[#   1]+0.013*[#  18]+0.005*[#  14]+0.005*[#  15]
    |psi|^2 = 0.037
==== e(   9) =    -2.90377 eV ==== 
     psi = 0.616*[#  13]+0.168*[#   2]+0.168*[#  19]+0.038*[#   6]+0.002*[#   5]
          +0.002*[#  11]+0.002*[#  12]
    |psi|^2 = 0.999
==== e(  10) =    -1.30863 eV ==== 
     psi = 0.419*[#  16]+0.419*[#  17]+0.037*[#   3]+0.037*[#   4]+0.037*[#  20]
          +0.037*[#  21]+0.003*[#  13]+0.003*[#   6]+0.003*[#  10]
    |psi|^2 = 1.000
==== e(  11) =    -1.15835 eV ==== 
     psi = 0.433*[#  16]+0.433*[#  17]+0.032*[#   3]+0.032*[#   4]+0.032*[#  20]
          +0.032*[#  21]+0.001*[#  11]+0.001*[#  12]
    |psi|^2 = 1.000
==== e(  12) =    -0.58872 eV ==== 
     psi = 0.202*[#   3]+0.202*[#   4]+0.202*[#  20]+0.202*[#  21]+0.088*[#  14]
          +0.088*[#  15]+0.056*[#   2]+0.056*[#  19]+0.003*[#   1]+0.003*[#  18]
          +0.001*[#  10]
    |psi|^2 = 1.104
==== e(  13) =    -0.46097 eV ==== 
     psi = 0.192*[#   3]+0.192*[#   4]+0.192*[#  20]+0.192*[#  21]+0.115*[#  14]
          +0.115*[#  15]
    |psi|^2 = 0.998
==== e(  14) =    -0.27253 eV ==== 
     psi = 0.199*[#   3]+0.199*[#   4]+0.199*[#  20]+0.199*[#  21]+0.096*[#   2]
          +0.096*[#  19]+0.080*[#  16]+0.080*[#  17]+0.012*[#   6]+0.007*[#  13]
          +0.005*[#   1]+0.005*[#  18]
    |psi|^2 = 1.175
==== e(  15) =    -0.09168 eV ==== 
     psi = 0.216*[#   3]+0.216*[#   4]+0.216*[#  20]+0.216*[#  21]+0.066*[#  16]
          +0.066*[#  17]+0.008*[#   2]+0.008*[#  19]+0.001*[#  11]+0.001*[#  12]
          
    |psi|^2 = 1.015
==== e(  16) =     0.45846 eV ==== 
     psi = 0.403*[#  14]+0.403*[#  15]+0.298*[#   2]+0.298*[#  19]+0.042*[#   3]
          +0.042*[#   4]+0.042*[#  20]+0.042*[#  21]+0.003*[#   1]+0.003*[#  18]
          
    |psi|^2 = 1.575
==== e(  17) =     0.55471 eV ==== 
     psi = 0.384*[#  14]+0.384*[#  15]+0.058*[#   3]+0.058*[#   4]+0.058*[#  20]
          +0.058*[#  21]
    |psi|^2 = 0.999
==== e(  18) =     1.12429 eV ==== 
     psi = 0.291*[#   6]+0.283*[#  13]+0.030*[#   1]+0.030*[#  18]+0.029*[#   2]
          +0.029*[#  19]+0.012*[#   3]+0.012*[#   4]+0.012*[#  20]+0.012*[#  21]
          +0.006*[#  11]+0.006*[#  12]
    |psi|^2 = 0.753
==== e(  19) =     3.96057 eV ==== 
     psi = 0.140*[#   2]+0.140*[#  19]+0.061*[#   1]+0.061*[#  18]+0.003*[#  14]
          +0.003*[#  15]+0.003*[#   3]+0.003*[#   4]+0.003*[#  20]+0.003*[#  21]
          
    |psi|^2 = 0.418
==== e(  20) =     4.52034 eV ==== 
     psi = 0.018*[#   2]+0.018*[#  19]+0.010*[#  10]+0.003*[#   6]+0.001*[#  13]
          
    |psi|^2 = 0.051
==== e(  21) =     5.46061 eV ==== 
     psi = 0.192*[#  10]+0.038*[#   1]+0.038*[#  18]+0.019*[#   2]+0.019*[#  19]
          +0.002*[#   3]+0.002*[#   4]+0.002*[#  20]+0.002*[#  21]
    |psi|^2 = 0.314
==== e(  22) =     5.68301 eV ==== 
     psi = 0.002*[#   2]+0.002*[#   6]+0.002*[#  19]
    |psi|^2 = 0.009
==== e(  23) =     7.31466 eV ==== 
     psi = 0.006*[#   1]+0.006*[#  18]
    |psi|^2 = 0.015
==== e(  24) =     7.94080 eV ==== 
     psi = 0.012*[#  11]+0.012*[#  12]+0.004*[#   6]+0.001*[#   1]+0.001*[#  18]
          
    |psi|^2 = 0.034
==== e(  25) =     7.98691 eV ==== 
     psi = 0.068*[#  10]+0.014*[#   1]+0.014*[#  18]
    |psi|^2 = 0.100
==== e(  26) =     8.65336 eV ==== 
     psi = 0.002*[#  11]+0.002*[#  12]+0.001*[#   2]+0.001*[#  19]
    |psi|^2 = 0.008
==== e(  27) =    10.04064 eV ==== 
     psi = 0.107*[#  11]+0.107*[#  12]+0.018*[#   6]+0.003*[#   8]+0.003*[#   9]
          +0.002*[#   5]
    |psi|^2 = 0.242
==== e(  28) =    10.33708 eV ==== 
     psi = 0.003*[#  10]
    |psi|^2 = 0.004
==== e(  29) =    10.39493 eV ==== 
     psi = 0.137*[#  11]+0.137*[#  12]+0.003*[#   8]+0.003*[#   9]
    |psi|^2 = 0.284
==== e(  30) =    10.69622 eV ==== 
     psi = 0.001*[#  10]
    |psi|^2 = 0.002

 k =   0.0800000000  0.0461880215  0.0000000000
==== e(   1) =   -56.96127 eV ==== 
     psi = 0.959*[#   5]+0.014*[#  11]+0.014*[#  12]+0.008*[#   6]+0.002*[#  13]
          
    |psi|^2 = 1.000
==== e(   2) =   -33.11650 eV ==== 
     psi = 0.022*[#  10]
    |psi|^2 = 0.022
==== e(   3) =   -32.73597 eV ==== 
     psi = 0.992*[#   7]+0.490*[#   8]+0.490*[#   9]+0.008*[#  11]+0.008*[#  12]
          +0.006*[#  10]+0.004*[#   6]
    |psi|^2 = 2.000
==== e(   4) =   -32.72219 eV ==== 
     psi = 0.488*[#   8]+0.488*[#   9]+0.012*[#  11]+0.012*[#  12]
    |psi|^2 = 1.000
==== e(   5) =   -13.50090 eV ==== 
     psi = 0.433*[#   1]+0.433*[#  18]+0.088*[#   6]+0.014*[#  13]+0.012*[#  11]
          +0.012*[#  12]+0.002*[#   5]+0.001*[#   3]+0.001*[#   4]+0.001*[#  20]
          +0.001*[#  21]
    |psi|^2 = 1.000
==== e(   6) =   -13.43824 eV ==== 
     psi = 0.361*[#   1]+0.361*[#  18]+0.018*[#  10]+0.002*[#   2]+0.002*[#  19]
          
    |psi|^2 = 0.747
==== e(   7) =    -5.29612 eV ==== 
     psi = 0.443*[#   6]+0.273*[#  10]+0.064*[#  13]+0.026*[#   1]+0.026*[#  11]
          +0.026*[#  12]+0.026*[#  18]+0.018*[#   5]+0.002*[#   7]
    |psi|^2 = 0.904
==== e(   8) =    -3.75524 eV ==== 
     psi = 0.013*[#   1]+0.013*[#  18]+0.008*[#  14]+0.008*[#  15]
    |psi|^2 = 0.045
==== e(   9) =    -2.86421 eV ==== 
     psi = 0.621*[#  13]+0.165*[#   2]+0.165*[#  19]+0.037*[#   6]+0.003*[#  11]
          +0.003*[#  12]+0.002*[#   5]
    |psi|^2 = 0.999
==== e(  10) =    -1.38319 eV ==== 
     psi = 0.395*[#  16]+0.395*[#  17]+0.047*[#   3]+0.047*[#   4]+0.047*[#  20]
          +0.047*[#  21]+0.006*[#  13]+0.005*[#   6]+0.005*[#  10]+0.002*[#   1]
          +0.002*[#  18]+0.001*[#  11]+0.001*[#  12]
    |psi|^2 = 1.000
==== e(  11) =    -1.11673 eV ==== 
     psi = 0.423*[#  16]+0.423*[#  17]+0.037*[#   3]+0.037*[#   4]+0.037*[#  20]
          +0.037*[#  21]+0.002*[#  11]+0.002*[#  12]+0.001*[#   2]+0.001*[#  19]
          
    |psi|^2 = 1.002
==== e(  12) =    -0.72853 eV ==== 
     psi = 0.206*[#   3]+0.206*[#   4]+0.206*[#  20]+0.206*[#  21]+0.074*[#  14]
          +0.074*[#  15]+0.070*[#   2]+0.070*[#  19]+0.006*[#   1]+0.006*[#  18]
          +0.002*[#  10]
    |psi|^2 = 1.126
==== e(  13) =    -0.50272 eV ==== 
     psi = 0.191*[#   3]+0.191*[#   4]+0.191*[#  20]+0.191*[#  21]+0.117*[#  14]
          +0.117*[#  15]
    |psi|^2 = 0.997
==== e(  14) =    -0.40940 eV ==== 
     psi = 0.184*[#   3]+0.184*[#   4]+0.184*[#  20]+0.184*[#  21]+0.102*[#  16]
          +0.102*[#  17]+0.095*[#   2]+0.095*[#  19]+0.015*[#   6]+0.007*[#   1]
          +0.007*[#  13]+0.007*[#  18]
    |psi|^2 = 1.167
==== e(  15) =    -0.11280 eV ==== 
     psi = 0.212*[#   3]+0.212*[#   4]+0.212*[#  20]+0.212*[#  21]+0.075*[#  16]
          +0.075*[#  17]+0.011*[#   2]+0.011*[#  19]+0.001*[#  11]+0.001*[#  12]
          
    |psi|^2 = 1.021
==== e(  16) =     0.39760 eV ==== 
     psi = 0.410*[#  14]+0.410*[#  15]+0.276*[#   2]+0.276*[#  19]+0.034*[#   3]
          +0.034*[#   4]+0.034*[#  20]+0.034*[#  21]+0.005*[#   1]+0.005*[#  18]
          
    |psi|^2 = 1.520
==== e(  17) =     0.55505 eV ==== 
     psi = 0.382*[#  14]+0.382*[#  15]+0.059*[#   3]+0.059*[#   4]+0.059*[#  20]
          +0.059*[#  21]
    |psi|^2 = 0.999
==== e(  18) =     1.16321 eV ==== 
     psi = 0.280*[#  13]+0.277*[#   6]+0.029*[#   2]+0.029*[#  19]+0.028*[#   1]
          +0.028*[#  18]+0.016*[#   3]+0.016*[#   4]+0.016*[#  20]+0.016*[#  21]
          +0.010*[#  11]+0.010*[#  12]
    |psi|^2 = 0.757
==== e(  19) =     4.05338 eV ==== 
     psi = 0.138*[#   2]+0.138*[#  19]+0.056*[#   1]+0.056*[#  18]+0.005*[#  14]
          +0.005*[#  15]+0.004*[#   3]+0.004*[#   4]+0.004*[#  20]+0.004*[#  21]
          
    |psi|^2 = 0.412
==== e(  20) =     4.56509 eV ==== 
     psi = 0.024*[#   2]+0.024*[#  19]+0.015*[#  10]+0.004*[#   6]+0.001*[#  13]
          
    |psi|^2 = 0.069
==== e(  21) =     5.51768 eV ==== 
     psi = 0.202*[#  10]+0.038*[#   1]+0.038*[#  18]+0.019*[#   2]+0.019*[#  19]
          +0.003*[#   3]+0.003*[#   4]+0.003*[#  20]+0.003*[#  21]+0.001*[#  14]
          +0.001*[#  15]
    |psi|^2 = 0.330
==== e(  22) =     5.72387 eV ==== 
     psi = 0.004*[#   2]+0.004*[#  19]+0.003*[#   6]
    |psi|^2 = 0.013
==== e(  23) =     7.33732 eV ==== 
     psi = 0.005*[#   1]+0.005*[#  18]
    |psi|^2 = 0.014
==== e(  24) =     8.07076 eV ==== 
     psi = 0.018*[#  11]+0.018*[#  12]+0.002*[#   6]+0.001*[#   1]+0.001*[#  18]
          +0.001*[#   5]+0.001*[#  13]
    |psi|^2 = 0.046
==== e(  25) =     8.11236 eV ==== 
     psi = 0.071*[#  10]+0.013*[#   1]+0.013*[#  18]+0.001*[#   3]+0.001*[#   4]
          +0.001*[#  20]+0.001*[#  21]
    |psi|^2 = 0.105
==== e(  26) =     8.68027 eV ==== 
     psi = 0.003*[#  11]+0.003*[#  12]+0.002*[#   2]+0.002*[#   6]+0.002*[#  19]
          
    |psi|^2 = 0.014
==== e(  27) =     9.89922 eV ==== 
     psi = 0.091*[#  11]+0.091*[#  12]+0.027*[#   6]+0.003*[#   5]+0.002*[#   8]
          +0.002*[#   9]
    |psi|^2 = 0.220
==== e(  28) =    10.17445 eV ==== 
     psi = 0.005*[#  10]
    |psi|^2 = 0.007
==== e(  29) =    10.49223 eV ==== 
     psi = 0.138*[#  11]+0.138*[#  12]+0.003*[#   8]+0.003*[#   9]
    |psi|^2 = 0.285
==== e(  30) =    10.64848 eV ==== 
     psi = 0.002*[#  10]
    |psi|^2 = 0.003

 k =   0.1000000000  0.0577350269  0.0000000000
==== e(   1) =   -56.96023 eV ==== 
     psi = 0.952*[#   5]+0.020*[#  11]+0.020*[#  12]+0.005*[#   6]+0.002*[#  13]
          
    |psi|^2 = 1.000
==== e(   2) =   -33.11527 eV ==== 
     psi = 0.030*[#  10]
    |psi|^2 = 0.030
==== e(   3) =   -32.74617 eV ==== 
     psi = 0.993*[#   7]+0.491*[#   8]+0.491*[#   9]+0.006*[#   6]+0.006*[#  11]
          +0.006*[#  12]+0.005*[#  10]
    |psi|^2 = 2.000
==== e(   4) =   -32.72449 eV ==== 
     psi = 0.488*[#   8]+0.488*[#   9]+0.012*[#  11]+0.012*[#  12]
    |psi|^2 = 1.000
==== e(   5) =   -13.46604 eV ==== 
     psi = 0.431*[#   1]+0.431*[#  18]+0.079*[#   6]+0.017*[#  11]+0.017*[#  12]
          +0.014*[#  13]+0.002*[#   3]+0.002*[#   4]+0.002*[#   5]+0.002*[#  20]
          +0.002*[#  21]
    |psi|^2 = 1.000
==== e(   6) =   -13.40528 eV ==== 
     psi = 0.364*[#   1]+0.364*[#  18]+0.025*[#  10]+0.003*[#   2]+0.003*[#  19]
          
    |psi|^2 = 0.763
==== e(   7) =    -5.22805 eV ==== 
     psi = 0.418*[#   6]+0.266*[#  10]+0.059*[#  13]+0.037*[#  11]+0.037*[#  12]
          +0.026*[#   1]+0.026*[#  18]+0.019*[#   5]+0.002*[#   7]
    |psi|^2 = 0.892
==== e(   8) =    -3.73822 eV ==== 
     psi = 0.013*[#   1]+0.013*[#  18]+0.013*[#  14]+0.013*[#  15]+0.001*[#   2]
          +0.001*[#  19]
    |psi|^2 = 0.055
==== e(   9) =    -2.81447 eV ==== 
     psi = 0.625*[#  13]+0.160*[#   2]+0.160*[#  19]+0.036*[#   6]+0.005*[#  11]
          +0.005*[#  12]+0.002*[#   5]+0.002*[#  16]+0.002*[#  17]
    |psi|^2 = 0.999
==== e(  10) =    -1.48091 eV ==== 
     psi = 0.362*[#  16]+0.362*[#  17]+0.060*[#   3]+0.060*[#   4]+0.060*[#  20]
          +0.060*[#  21]+0.010*[#  13]+0.008*[#   6]+0.007*[#  10]+0.003*[#   1]
          +0.003*[#  18]+0.002*[#  11]+0.002*[#  12]
    |psi|^2 = 1.000
==== e(  11) =    -1.06590 eV ==== 
     psi = 0.408*[#  16]+0.408*[#  17]+0.044*[#   3]+0.044*[#   4]+0.044*[#  20]
          +0.044*[#  21]+0.003*[#  11]+0.003*[#  12]+0.002*[#   2]+0.002*[#  19]
          
    |psi|^2 = 1.004
==== e(  12) =    -0.90196 eV ==== 
     psi = 0.209*[#   3]+0.209*[#   4]+0.209*[#  20]+0.209*[#  21]+0.090*[#   2]
          +0.090*[#  19]+0.062*[#  14]+0.062*[#  15]+0.008*[#   1]+0.008*[#  18]
          +0.003*[#  10]
    |psi|^2 = 1.161
==== e(  13) =    -0.55950 eV ==== 
     psi = 0.167*[#   3]+0.167*[#   4]+0.167*[#  20]+0.167*[#  21]+0.133*[#  16]
          +0.133*[#  17]+0.015*[#   6]+0.013*[#   2]+0.013*[#  19]+0.009*[#   1]
          +0.009*[#  18]+0.006*[#  13]
    |psi|^2 = 0.998
==== e(  14) =    -0.55344 eV ==== 
     psi = 0.250*[#   2]+0.250*[#  19]+0.190*[#   3]+0.190*[#   4]+0.190*[#  20]
          +0.190*[#  21]+0.119*[#  14]+0.119*[#  15]
    |psi|^2 = 1.498
==== e(  15) =    -0.13644 eV ==== 
     psi = 0.204*[#   3]+0.204*[#   4]+0.204*[#  20]+0.204*[#  21]+0.090*[#  16]
          +0.090*[#  17]
    |psi|^2 = 0.999
==== e(  16) =     0.33026 eV ==== 
     psi = 0.416*[#  14]+0.416*[#  15]+0.095*[#   2]+0.095*[#  19]+0.028*[#   3]
          +0.028*[#   4]+0.028*[#  20]+0.028*[#  21]+0.006*[#   1]+0.006*[#  18]
          
    |psi|^2 = 1.143
==== e(  17) =     0.55431 eV ==== 
     psi = 0.381*[#  14]+0.381*[#  15]+0.059*[#   3]+0.059*[#   4]+0.059*[#  20]
          +0.059*[#  21]
    |psi|^2 = 0.999
==== e(  18) =     1.20064 eV ==== 
     psi = 0.278*[#  13]+0.264*[#   6]+0.030*[#   2]+0.030*[#  19]+0.026*[#   1]
          +0.026*[#  18]+0.019*[#   3]+0.019*[#   4]+0.019*[#  20]+0.019*[#  21]
          +0.014*[#  11]+0.014*[#  12]+0.001*[#   5]
    |psi|^2 = 0.759
==== e(  19) =     4.16442 eV ==== 
     psi = 0.137*[#   2]+0.137*[#  19]+0.050*[#   1]+0.050*[#  18]+0.006*[#  14]
          +0.006*[#  15]+0.005*[#   3]+0.005*[#   4]+0.005*[#  20]+0.005*[#  21]
          
    |psi|^2 = 0.406
==== e(  20) =     4.62245 eV ==== 
     psi = 0.029*[#   2]+0.029*[#  19]+0.021*[#  10]+0.004*[#   6]+0.001*[#  13]
          
    |psi|^2 = 0.085
==== e(  21) =     5.58718 eV ==== 
     psi = 0.215*[#  10]+0.038*[#   1]+0.038*[#  18]+0.020*[#   2]+0.020*[#  19]
          +0.004*[#   3]+0.004*[#   4]+0.004*[#  20]+0.004*[#  21]+0.002*[#  14]
          +0.002*[#  15]
    |psi|^2 = 0.349
==== e(  22) =     5.77628 eV ==== 
     psi = 0.006*[#   2]+0.006*[#  19]+0.003*[#   6]
    |psi|^2 = 0.018
==== e(  23) =     7.36315 eV ==== 
     psi = 0.004*[#   1]+0.004*[#  18]
    |psi|^2 = 0.013
==== e(  24) =     8.21624 eV ==== 
     psi = 0.024*[#  11]+0.024*[#  12]+0.002*[#   5]+0.002*[#   1]+0.002*[#  18]
          +0.001*[#  10]+0.001*[#  13]
    |psi|^2 = 0.060
==== e(  25) =     8.25358 eV ==== 
     psi = 0.073*[#  10]+0.013*[#   1]+0.013*[#  18]+0.002*[#   3]+0.002*[#   4]
          +0.002*[#  20]+0.002*[#  21]
    |psi|^2 = 0.107
==== e(  26) =     8.71214 eV ==== 
     psi = 0.005*[#  11]+0.005*[#  12]+0.004*[#   6]+0.003*[#   2]+0.003*[#  19]
          
    |psi|^2 = 0.021
==== e(  27) =     9.75515 eV ==== 
     psi = 0.076*[#  11]+0.076*[#  12]+0.035*[#   6]+0.004*[#   5]+0.002*[#   8]
          +0.002*[#   9]
    |psi|^2 = 0.198
==== e(  28) =    10.00859 eV ==== 
     psi = 0.008*[#  10]
    |psi|^2 = 0.011
==== e(  29) =    10.58889 eV ==== 
     psi = 0.003*[#  10]
    |psi|^2 = 0.005
==== e(  30) =    10.61206 eV ==== 
     psi = 0.140*[#  11]+0.140*[#  12]+0.003*[#   8]+0.003*[#   9]
    |psi|^2 = 0.291

 k =   0.1200000000  0.0692820323  0.0000000000
==== e(   1) =   -56.95901 eV ==== 
     psi = 0.944*[#   5]+0.025*[#  11]+0.025*[#  12]+0.003*[#   6]+0.002*[#  13]
          
    |psi|^2 = 1.000
==== e(   2) =   -33.11367 eV ==== 
     psi = 0.038*[#  10]
    |psi|^2 = 0.038
==== e(   3) =   -32.75821 eV ==== 
     psi = 0.993*[#   7]+0.491*[#   8]+0.491*[#   9]+0.007*[#   6]+0.005*[#  10]
          +0.004*[#  11]+0.004*[#  12]
    |psi|^2 = 1.999
==== e(   4) =   -32.72754 eV ==== 
     psi = 0.488*[#   8]+0.488*[#   9]+0.012*[#  11]+0.012*[#  12]
    |psi|^2 = 1.000
==== e(   5) =   -13.42399 eV ==== 
     psi = 0.430*[#   1]+0.430*[#  18]+0.070*[#   6]+0.022*[#  11]+0.022*[#  12]
          +0.014*[#  13]+0.003*[#   3]+0.003*[#   4]+0.003*[#  20]+0.003*[#  21]
          +0.002*[#   5]
    |psi|^2 = 1.000
==== e(   6) =   -13.36554 eV ==== 
     psi = 0.367*[#   1]+0.367*[#  18]+0.033*[#  10]+0.004*[#   2]+0.004*[#  19]
          +0.001*[#   3]+0.001*[#   4]+0.001*[#  20]+0.001*[#  21]
    |psi|^2 = 0.781
==== e(   7) =    -5.14692 eV ==== 
     psi = 0.391*[#   6]+0.257*[#  10]+0.053*[#  13]+0.050*[#  11]+0.050*[#  12]
          +0.026*[#   1]+0.026*[#  18]+0.019*[#   5]+0.002*[#   7]+0.001*[#  16]
          +0.001*[#  17]
    |psi|^2 = 0.877
==== e(   8) =    -3.71816 eV ==== 
     psi = 0.019*[#  14]+0.019*[#  15]+0.013*[#   1]+0.013*[#  18]+0.002*[#   2]
          +0.002*[#  19]
    |psi|^2 = 0.068
==== e(   9) =    -2.75579 eV ==== 
     psi = 0.630*[#  13]+0.153*[#   2]+0.153*[#  19]+0.035*[#   6]+0.006*[#  11]
          +0.006*[#  12]+0.004*[#  16]+0.004*[#  17]+0.003*[#   5]
    |psi|^2 = 0.999
==== e(  10) =    -1.60307 eV ==== 
     psi = 0.318*[#  16]+0.318*[#  17]+0.078*[#   3]+0.078*[#   4]+0.078*[#  20]
          +0.078*[#  21]+0.014*[#  13]+0.010*[#   6]+0.009*[#  10]+0.005*[#   1]
          +0.005*[#  18]+0.003*[#  11]+0.003*[#  12]+0.001*[#   2]+0.001*[#  19]
          
    |psi|^2 = 1.000
==== e(  11) =    -1.10352 eV ==== 
     psi = 0.211*[#   3]+0.211*[#   4]+0.211*[#  20]+0.211*[#  21]+0.051*[#  14]
          +0.051*[#  15]+0.011*[#   1]+0.011*[#  18]+0.004*[#   2]+0.004*[#  19]
          
    |psi|^2 = 0.979
==== e(  12) =    -1.00892 eV ==== 
     psi = 0.385*[#  16]+0.385*[#  17]+0.116*[#   2]+0.116*[#  19]+0.055*[#   3]
          +0.055*[#   4]+0.055*[#  20]+0.055*[#  21]+0.005*[#  10]+0.004*[#  11]
          +0.004*[#  12]
    |psi|^2 = 1.236
==== e(  13) =    -0.71105 eV ==== 
     psi = 0.173*[#  16]+0.173*[#  17]+0.146*[#   3]+0.146*[#   4]+0.146*[#  20]
          +0.146*[#  21]+0.015*[#   2]+0.015*[#  19]+0.014*[#   6]+0.009*[#   1]
          +0.009*[#  18]+0.004*[#  13]
    |psi|^2 = 0.998
==== e(  14) =    -0.61156 eV ==== 
     psi = 0.219*[#   2]+0.219*[#  19]+0.189*[#   3]+0.189*[#   4]+0.189*[#  20]
          +0.189*[#  21]+0.120*[#  14]+0.120*[#  15]
    |psi|^2 = 1.436
==== e(  15) =    -0.15948 eV ==== 
     psi = 0.193*[#   3]+0.193*[#   4]+0.193*[#  20]+0.193*[#  21]+0.112*[#  16]
          +0.112*[#  17]
    |psi|^2 = 0.999
==== e(  16) =     0.26045 eV ==== 
     psi = 0.418*[#  14]+0.418*[#  15]+0.095*[#   2]+0.095*[#  19]+0.023*[#   3]
          +0.023*[#   4]+0.023*[#  20]+0.023*[#  21]+0.006*[#   1]+0.006*[#  18]
          
    |psi|^2 = 1.128
==== e(  17) =     0.55170 eV ==== 
     psi = 0.379*[#  14]+0.379*[#  15]+0.060*[#   3]+0.060*[#   4]+0.060*[#  20]
          +0.060*[#  21]
    |psi|^2 = 0.999
==== e(  18) =     1.23402 eV ==== 
     psi = 0.277*[#  13]+0.252*[#   6]+0.030*[#   2]+0.030*[#  19]+0.024*[#   1]
          +0.024*[#  18]+0.021*[#   3]+0.021*[#   4]+0.021*[#  20]+0.021*[#  21]
          +0.018*[#  11]+0.018*[#  12]+0.001*[#   5]
    |psi|^2 = 0.761
==== e(  19) =     4.29025 eV ==== 
     psi = 0.137*[#   2]+0.137*[#  19]+0.045*[#   1]+0.045*[#  18]+0.007*[#  14]
          +0.007*[#  15]+0.006*[#   3]+0.006*[#   4]+0.006*[#  20]+0.006*[#  21]
          
    |psi|^2 = 0.400
==== e(  20) =     4.69229 eV ==== 
     psi = 0.032*[#   2]+0.032*[#  19]+0.028*[#  10]+0.004*[#   6]+0.001*[#  13]
          
    |psi|^2 = 0.098
==== e(  21) =     5.66609 eV ==== 
     psi = 0.229*[#  10]+0.037*[#   1]+0.037*[#  18]+0.020*[#   2]+0.020*[#  19]
          +0.005*[#   3]+0.005*[#   4]+0.005*[#  20]+0.005*[#  21]+0.002*[#  14]
          +0.002*[#  15]
    |psi|^2 = 0.370
==== e(  22) =     5.84008 eV ==== 
     psi = 0.008*[#   2]+0.008*[#  19]+0.004*[#   6]+0.001*[#  11]+0.001*[#  12]
          
    |psi|^2 = 0.023
==== e(  23) =     7.39094 eV ==== 
     psi = 0.004*[#   1]+0.004*[#  18]
    |psi|^2 = 0.011
==== e(  24) =     8.35328 eV ==== 
     psi = 0.031*[#  11]+0.031*[#  12]+0.003*[#   5]+0.003*[#   6]+0.002*[#   1]
          +0.002*[#  10]+0.002*[#  18]+0.002*[#  13]
    |psi|^2 = 0.077
==== e(  25) =     8.38628 eV ==== 
     psi = 0.071*[#  10]+0.012*[#   1]+0.012*[#  18]+0.002*[#   3]+0.002*[#   4]
          +0.002*[#  20]+0.002*[#  21]
    |psi|^2 = 0.104
==== e(  26) =     8.74689 eV ==== 
     psi = 0.007*[#  11]+0.007*[#  12]+0.006*[#   6]+0.003*[#   2]+0.003*[#  19]
          
    |psi|^2 = 0.029
==== e(  27) =     9.63455 eV ==== 
     psi = 0.061*[#  11]+0.061*[#  12]+0.040*[#   6]+0.005*[#   5]+0.001*[#   8]
          +0.001*[#   9]
    |psi|^2 = 0.174
==== e(  28) =     9.87128 eV ==== 
     psi = 0.010*[#  10]
    |psi|^2 = 0.017
==== e(  29) =    10.52342 eV ==== 
     psi = 0.006*[#  10]
    |psi|^2 = 0.009
==== e(  30) =    10.74899 eV ==== 
     psi = 0.146*[#  11]+0.146*[#  12]+0.004*[#   8]+0.004*[#   9]
    |psi|^2 = 0.304

 k =   0.1400000000  0.0808290377  0.0000000000
==== e(   1) =   -56.95754 eV ==== 
     psi = 0.937*[#   5]+0.030*[#  11]+0.030*[#  12]+0.001*[#  13]
    |psi|^2 = 1.000
==== e(   2) =   -33.11173 eV ==== 
     psi = 0.045*[#  10]
    |psi|^2 = 0.045
==== e(   3) =   -32.77193 eV ==== 
     psi = 0.994*[#   7]+0.492*[#   8]+0.492*[#   9]+0.009*[#   6]+0.004*[#  10]
          +0.003*[#  11]+0.003*[#  12]
    |psi|^2 = 1.999
==== e(   4) =   -32.73076 eV ==== 
     psi = 0.488*[#   8]+0.488*[#   9]+0.011*[#  11]+0.011*[#  12]
    |psi|^2 = 1.000
==== e(   5) =   -13.37510 eV ==== 
     psi = 0.429*[#   1]+0.429*[#  18]+0.062*[#   6]+0.026*[#  11]+0.026*[#  12]
          +0.013*[#  13]+0.003*[#   3]+0.003*[#   4]+0.003*[#  20]+0.003*[#  21]
          +0.002*[#   5]
    |psi|^2 = 1.000
==== e(   6) =   -13.31933 eV ==== 
     psi = 0.371*[#   1]+0.371*[#  18]+0.039*[#  10]+0.005*[#   2]+0.005*[#  19]
          +0.002*[#   3]+0.002*[#   4]+0.002*[#  20]+0.002*[#  21]+0.001*[#  14]
          +0.001*[#  15]
    |psi|^2 = 0.800
==== e(   7) =    -5.05403 eV ==== 
     psi = 0.363*[#   6]+0.247*[#  10]+0.061*[#  11]+0.061*[#  12]+0.046*[#  13]
          +0.027*[#   1]+0.027*[#  18]+0.019*[#   5]+0.002*[#  16]+0.002*[#  17]
          +0.002*[#   7]
    |psi|^2 = 0.860
==== e(   8) =    -3.69557 eV ==== 
     psi = 0.026*[#  14]+0.026*[#  15]+0.013*[#   1]+0.013*[#  18]+0.002*[#   2]
          +0.002*[#  19]
    |psi|^2 = 0.083
==== e(   9) =    -2.69023 eV ==== 
     psi = 0.634*[#  13]+0.145*[#   2]+0.145*[#  19]+0.034*[#   6]+0.008*[#  11]
          +0.008*[#  12]+0.008*[#  16]+0.008*[#  17]+0.003*[#   5]+0.001*[#   3]
          +0.001*[#   4]+0.001*[#  20]+0.001*[#  21]
    |psi|^2 = 0.999
==== e(  10) =    -1.75070 eV ==== 
     psi = 0.267*[#  16]+0.267*[#  17]+0.098*[#   3]+0.098*[#   4]+0.098*[#  20]
          +0.098*[#  21]+0.018*[#  13]+0.013*[#   6]+0.012*[#  10]+0.007*[#   1]
          +0.007*[#  18]+0.004*[#  11]+0.004*[#  12]+0.002*[#   2]+0.002*[#  19]
          
    |psi|^2 = 0.998
==== e(  11) =    -1.32714 eV ==== 
     psi = 0.212*[#   3]+0.212*[#   4]+0.212*[#  20]+0.212*[#  21]+0.043*[#  14]
          +0.043*[#  15]+0.014*[#   1]+0.014*[#  18]+0.007*[#   2]+0.007*[#  19]
          
    |psi|^2 = 0.978
==== e(  12) =    -0.94952 eV ==== 
     psi = 0.351*[#  16]+0.351*[#  17]+0.147*[#   2]+0.147*[#  19]+0.072*[#   3]
          +0.072*[#   4]+0.072*[#  20]+0.072*[#  21]+0.007*[#  10]+0.005*[#  11]
          +0.005*[#  12]
    |psi|^2 = 1.300
==== e(  13) =    -0.85312 eV ==== 
     psi = 0.219*[#  16]+0.219*[#  17]+0.123*[#   3]+0.123*[#   4]+0.123*[#  20]
          +0.123*[#  21]+0.016*[#   2]+0.016*[#  19]+0.012*[#   6]+0.009*[#   1]
          +0.009*[#  18]+0.003*[#  13]+0.002*[#  11]+0.002*[#  12]
    |psi|^2 = 0.998
==== e(  14) =    -0.67535 eV ==== 
     psi = 0.189*[#   3]+0.189*[#   4]+0.189*[#  20]+0.189*[#  21]+0.184*[#   2]
          +0.184*[#  19]+0.121*[#  14]+0.121*[#  15]+0.002*[#  10]
    |psi|^2 = 1.367
==== e(  15) =    -0.17699 eV ==== 
     psi = 0.176*[#   3]+0.176*[#   4]+0.176*[#  20]+0.176*[#  21]+0.146*[#  16]
          +0.146*[#  17]
    |psi|^2 = 0.998
==== e(  16) =     0.19054 eV ==== 
     psi = 0.417*[#  14]+0.417*[#  15]+0.094*[#   2]+0.094*[#  19]+0.019*[#   3]
          +0.019*[#   4]+0.019*[#  20]+0.019*[#  21]+0.006*[#   1]+0.006*[#  18]
          
    |psi|^2 = 1.111
==== e(  17) =     0.54706 eV ==== 
     psi = 0.378*[#  14]+0.378*[#  15]+0.061*[#   3]+0.061*[#   4]+0.061*[#  20]
          +0.061*[#  21]
    |psi|^2 = 0.999
==== e(  18) =     1.26223 eV ==== 
     psi = 0.276*[#  13]+0.242*[#   6]+0.030*[#   2]+0.030*[#  19]+0.023*[#   1]
          +0.023*[#  11]+0.023*[#  12]+0.023*[#  18]+0.022*[#   3]+0.022*[#   4]
          +0.022*[#  20]+0.022*[#  21]+0.001*[#   5]
    |psi|^2 = 0.761
==== e(  19) =     4.42828 eV ==== 
     psi = 0.137*[#   2]+0.137*[#  19]+0.040*[#   1]+0.040*[#  18]+0.008*[#  14]
          +0.008*[#  15]+0.006*[#   3]+0.006*[#   4]+0.006*[#  20]+0.006*[#  21]
          
    |psi|^2 = 0.394
==== e(  20) =     4.77442 eV ==== 
     psi = 0.034*[#  10]+0.033*[#   2]+0.033*[#  19]+0.004*[#   6]
    |psi|^2 = 0.108
==== e(  21) =     5.75054 eV ==== 
     psi = 0.247*[#  10]+0.037*[#   1]+0.037*[#  18]+0.021*[#   2]+0.021*[#  19]
          +0.007*[#   3]+0.007*[#   4]+0.007*[#  20]+0.007*[#  21]+0.003*[#  14]
          +0.003*[#  15]
    |psi|^2 = 0.394
==== e(  22) =     5.91509 eV ==== 
     psi = 0.010*[#   2]+0.010*[#  19]+0.004*[#   6]+0.001*[#  11]+0.001*[#  12]
          
    |psi|^2 = 0.028
==== e(  23) =     7.42017 eV ==== 
     psi = 0.003*[#   1]+0.003*[#  18]
    |psi|^2 = 0.010
==== e(  24) =     8.44080 eV ==== 
     psi = 0.040*[#  11]+0.040*[#  12]+0.010*[#   6]+0.004*[#   5]+0.002*[#  10]
          +0.002*[#   1]+0.002*[#  18]+0.002*[#  13]
    |psi|^2 = 0.104
==== e(  25) =     8.47419 eV ==== 
     psi = 0.062*[#  10]+0.010*[#   1]+0.010*[#  18]+0.002*[#   3]+0.002*[#   4]
          +0.002*[#  20]+0.002*[#  21]
    |psi|^2 = 0.090
==== e(  26) =     8.78415 eV ==== 
     psi = 0.009*[#   6]+0.007*[#  11]+0.007*[#  12]+0.003*[#   2]+0.003*[#  19]
          
    |psi|^2 = 0.033
==== e(  27) =     9.57422 eV ==== 
     psi = 0.046*[#  11]+0.046*[#  12]+0.043*[#   6]+0.005*[#   5]+0.001*[#   3]
          +0.001*[#   4]
    |psi|^2 = 0.149
==== e(  28) =     9.80027 eV ==== 
     psi = 0.011*[#  10]+0.002*[#   1]+0.002*[#  18]+0.002*[#   3]+0.002*[#   4]
          +0.002*[#  20]+0.002*[#  21]
    |psi|^2 = 0.023
==== e(  29) =    10.46094 eV ==== 
     psi = 0.010*[#  10]+0.001*[#   1]+0.001*[#  18]
    |psi|^2 = 0.014
==== e(  30) =    10.89582 eV ==== 
     psi = 0.159*[#  11]+0.159*[#  12]+0.004*[#   8]+0.004*[#   9]+0.001*[#   3]
          +0.001*[#   4]+0.001*[#  20]+0.001*[#  21]
    |psi|^2 = 0.332

 k =   0.1600000000  0.0923760431  0.0000000000
==== e(   1) =   -56.95598 eV ==== 
     psi = 0.930*[#   5]+0.034*[#  11]+0.034*[#  12]
    |psi|^2 = 1.000
==== e(   2) =   -33.10984 eV ==== 
     psi = 0.050*[#  10]
    |psi|^2 = 0.051
==== e(   3) =   -32.78710 eV ==== 
     psi = 0.994*[#   7]+0.493*[#   8]+0.493*[#   9]+0.009*[#   6]+0.003*[#  10]
          +0.002*[#  11]+0.002*[#  12]+0.001*[#  13]
    |psi|^2 = 1.999
==== e(   4) =   -32.73444 eV ==== 
     psi = 0.489*[#   8]+0.489*[#   9]+0.011*[#  11]+0.011*[#  12]
    |psi|^2 = 1.000
==== e(   5) =   -13.31981 eV ==== 
     psi = 0.428*[#   1]+0.428*[#  18]+0.054*[#   6]+0.030*[#  11]+0.030*[#  12]
          +0.013*[#  13]+0.004*[#   3]+0.004*[#   4]+0.004*[#  20]+0.004*[#  21]
          +0.002*[#   5]
    |psi|^2 = 1.000
==== e(   6) =   -13.26707 eV ==== 
     psi = 0.376*[#   1]+0.376*[#  18]+0.045*[#  10]+0.006*[#   2]+0.006*[#  19]
          +0.002*[#   3]+0.002*[#   4]+0.002*[#  20]+0.002*[#  21]+0.001*[#  14]
          +0.001*[#  15]
    |psi|^2 = 0.819
==== e(   7) =    -4.95112 eV ==== 
     psi = 0.336*[#   6]+0.235*[#  10]+0.072*[#  11]+0.072*[#  12]+0.039*[#  13]
          +0.027*[#   1]+0.027*[#  18]+0.019*[#   5]+0.004*[#  16]+0.004*[#  17]
          +0.001*[#   7]+0.001*[#   8]+0.001*[#   9]
    |psi|^2 = 0.840
==== e(   8) =    -3.67102 eV ==== 
     psi = 0.034*[#  14]+0.034*[#  15]+0.013*[#   1]+0.013*[#  18]+0.003*[#   2]
          +0.003*[#  19]
    |psi|^2 = 0.101
==== e(   9) =    -2.62148 eV ==== 
     psi = 0.635*[#  13]+0.135*[#   2]+0.135*[#  19]+0.031*[#   6]+0.014*[#  16]
          +0.014*[#  17]+0.009*[#  11]+0.009*[#  12]+0.003*[#   3]+0.003*[#   4]
          +0.003*[#  20]+0.003*[#  21]+0.003*[#   5]
    |psi|^2 = 0.998
==== e(  10) =    -1.92233 eV ==== 
     psi = 0.214*[#  16]+0.214*[#  17]+0.119*[#   3]+0.119*[#   4]+0.119*[#  20]
          +0.119*[#  21]+0.021*[#  13]+0.016*[#   6]+0.014*[#  10]+0.010*[#   1]
          +0.010*[#  18]+0.006*[#  11]+0.006*[#  12]+0.004*[#   2]+0.004*[#  19]
          
    |psi|^2 = 0.995
==== e(  11) =    -1.56683 eV ==== 
     psi = 0.213*[#   3]+0.213*[#   4]+0.213*[#  20]+0.213*[#  21]+0.036*[#  14]
          +0.036*[#  15]+0.017*[#   1]+0.017*[#  18]+0.012*[#   2]+0.012*[#  19]
          
    |psi|^2 = 0.980
==== e(  12) =    -0.97643 eV ==== 
     psi = 0.262*[#  16]+0.262*[#  17]+0.179*[#   2]+0.179*[#  19]+0.099*[#   3]
          +0.099*[#   4]+0.099*[#  20]+0.099*[#  21]+0.010*[#   6]+0.009*[#  10]
          +0.008*[#  13]+0.008*[#   1]+0.008*[#  18]+0.003*[#  11]+0.003*[#  12]
          
    |psi|^2 = 1.329
==== e(  13) =    -0.89431 eV ==== 
     psi = 0.302*[#  16]+0.302*[#  17]+0.096*[#   3]+0.096*[#   4]+0.096*[#  20]
          +0.096*[#  21]+0.006*[#  11]+0.006*[#  12]
    |psi|^2 = 0.999
==== e(  14) =    -0.74336 eV ==== 
     psi = 0.188*[#   3]+0.188*[#   4]+0.188*[#  20]+0.188*[#  21]+0.122*[#  14]
          +0.122*[#  15]+0.048*[#   2]+0.048*[#  19]+0.003*[#  10]
    |psi|^2 = 1.095
==== e(  15) =    -0.18221 eV ==== 
     psi = 0.194*[#  16]+0.194*[#  17]+0.152*[#   3]+0.152*[#   4]+0.152*[#  20]
          +0.152*[#  21]
    |psi|^2 = 0.998
==== e(  16) =     0.12214 eV ==== 
     psi = 0.414*[#  14]+0.414*[#  15]+0.094*[#   2]+0.094*[#  19]+0.016*[#   3]
          +0.016*[#   4]+0.016*[#  20]+0.016*[#  21]+0.006*[#   1]+0.006*[#  18]
          
    |psi|^2 = 1.093
==== e(  17) =     0.53991 eV ==== 
     psi = 0.377*[#  14]+0.377*[#  15]+0.061*[#   3]+0.061*[#   4]+0.061*[#  20]
          +0.061*[#  21]
    |psi|^2 = 0.999
==== e(  18) =     1.28468 eV ==== 
     psi = 0.274*[#  13]+0.233*[#   6]+0.031*[#   2]+0.031*[#  19]+0.027*[#  11]
          +0.027*[#  12]+0.023*[#   3]+0.023*[#   4]+0.023*[#  20]+0.023*[#  21]
          +0.022*[#   1]+0.022*[#  18]+0.002*[#   5]
    |psi|^2 = 0.760
==== e(  19) =     4.57644 eV ==== 
     psi = 0.138*[#   2]+0.138*[#  19]+0.035*[#   1]+0.035*[#  18]+0.008*[#  14]
          +0.008*[#  15]+0.006*[#   3]+0.006*[#   4]+0.006*[#  20]+0.006*[#  21]
          
    |psi|^2 = 0.388
==== e(  20) =     4.86855 eV ==== 
     psi = 0.041*[#  10]+0.034*[#   2]+0.034*[#  19]+0.005*[#   6]
    |psi|^2 = 0.117
==== e(  21) =     5.83529 eV ==== 
     psi = 0.265*[#  10]+0.036*[#   1]+0.036*[#  18]+0.021*[#   2]+0.021*[#  19]
          +0.008*[#   3]+0.008*[#   4]+0.008*[#  20]+0.008*[#  21]+0.003*[#  14]
          +0.003*[#  15]
    |psi|^2 = 0.418
==== e(  22) =     6.00097 eV ==== 
     psi = 0.012*[#   2]+0.012*[#  19]+0.005*[#   6]+0.002*[#  11]+0.002*[#  12]
          
    |psi|^2 = 0.034
==== e(  23) =     7.45123 eV ==== 
     psi = 0.002*[#   1]+0.002*[#  18]
    |psi|^2 = 0.007
==== e(  24) =     8.43574 eV ==== 
     psi = 0.048*[#  11]+0.048*[#  12]+0.024*[#   6]+0.006*[#   5]+0.002*[#  10]
          +0.002*[#   1]+0.002*[#  13]+0.002*[#  18]
    |psi|^2 = 0.137
==== e(  25) =     8.47907 eV ==== 
     psi = 0.048*[#  10]+0.007*[#   1]+0.007*[#  18]+0.001*[#   3]+0.001*[#   4]
          +0.001*[#  20]+0.001*[#  21]
    |psi|^2 = 0.068
==== e(  26) =     8.82418 eV ==== 
     psi = 0.012*[#   6]+0.007*[#  11]+0.007*[#  12]+0.002*[#   2]+0.002*[#  19]
          
    |psi|^2 = 0.033
==== e(  27) =     9.60641 eV ==== 
     psi = 0.044*[#   6]+0.036*[#  11]+0.036*[#  12]+0.005*[#   5]+0.001*[#   3]
          +0.001*[#   4]+0.001*[#  20]+0.001*[#  21]
    |psi|^2 = 0.130
==== e(  28) =     9.82924 eV ==== 
     psi = 0.010*[#  10]+0.003*[#   1]+0.003*[#  18]+0.002*[#   3]+0.002*[#   4]
          +0.002*[#  20]+0.002*[#  21]
    |psi|^2 = 0.027
==== e(  29) =    10.41226 eV ==== 
     psi = 0.018*[#  10]+0.002*[#   1]+0.002*[#  18]
    |psi|^2 = 0.025
==== e(  30) =    11.03712 eV ==== 
     psi = 0.183*[#  11]+0.183*[#  12]+0.004*[#   8]+0.004*[#   9]+0.001*[#   3]
          +0.001*[#   4]+0.001*[#  20]+0.001*[#  21]+0.001*[#  16]+0.001*[#  17]
          
    |psi|^2 = 0.383

 k =   0.1800000000  0.1039230485  0.0000000000
==== e(   1) =   -56.95428 eV ==== 
     psi = 0.925*[#   5]+0.036*[#  11]+0.036*[#  12]
    |psi|^2 = 1.000
==== e(   2) =   -33.10785 eV ==== 
     psi = 0.054*[#  10]
    |psi|^2 = 0.055
==== e(   3) =   -32.80351 eV ==== 
     psi = 0.995*[#   7]+0.493*[#   8]+0.493*[#   9]+0.010*[#   6]+0.003*[#  10]
          +0.001*[#  13]
    |psi|^2 = 1.999
==== e(   4) =   -32.73827 eV ==== 
     psi = 0.489*[#   8]+0.489*[#   9]+0.011*[#  11]+0.011*[#  12]
    |psi|^2 = 1.000
==== e(   5) =   -13.25862 eV ==== 
     psi = 0.427*[#   1]+0.427*[#  18]+0.047*[#   6]+0.033*[#  11]+0.033*[#  12]
          +0.012*[#  13]+0.004*[#   3]+0.004*[#   4]+0.004*[#  20]+0.004*[#  21]
          +0.003*[#   5]
    |psi|^2 = 1.000
==== e(   6) =   -13.20925 eV ==== 
     psi = 0.381*[#   1]+0.381*[#  18]+0.049*[#  10]+0.007*[#   2]+0.007*[#  19]
          +0.003*[#   3]+0.003*[#   4]+0.003*[#  20]+0.003*[#  21]+0.002*[#  14]
          +0.002*[#  15]
    |psi|^2 = 0.839
==== e(   7) =    -4.84004 eV ==== 
     psi = 0.309*[#   6]+0.222*[#  10]+0.082*[#  11]+0.082*[#  12]+0.032*[#  13]
          +0.027*[#   1]+0.027*[#  18]+0.018*[#   5]+0.006*[#  16]+0.006*[#  17]
          +0.001*[#   7]+0.001*[#   8]+0.001*[#   9]
    |psi|^2 = 0.818
==== e(   8) =    -3.64526 eV ==== 
     psi = 0.044*[#  14]+0.044*[#  15]+0.013*[#   1]+0.013*[#  18]+0.004*[#   2]
          +0.004*[#  19]
    |psi|^2 = 0.122
==== e(   9) =    -2.55598 eV ==== 
     psi = 0.628*[#  13]+0.119*[#   2]+0.119*[#  19]+0.027*[#   6]+0.027*[#  16]
          +0.027*[#  17]+0.009*[#  11]+0.009*[#  12]+0.007*[#   3]+0.007*[#   4]
          +0.007*[#  20]+0.007*[#  21]+0.003*[#   5]
    |psi|^2 = 0.998
==== e(  10) =    -2.11206 eV ==== 
     psi = 0.166*[#  16]+0.166*[#  17]+0.135*[#   3]+0.135*[#   4]+0.135*[#  20]
          +0.135*[#  21]+0.023*[#  13]+0.018*[#   6]+0.014*[#  10]+0.012*[#   1]
          +0.012*[#  18]+0.011*[#   2]+0.011*[#  19]+0.008*[#  11]+0.008*[#  12]
          
    |psi|^2 = 0.990
==== e(  11) =    -1.81703 eV ==== 
     psi = 0.213*[#   3]+0.213*[#   4]+0.213*[#  20]+0.213*[#  21]+0.030*[#  14]
          +0.030*[#  15]+0.021*[#   2]+0.021*[#  19]+0.019*[#   1]+0.019*[#  18]
          
    |psi|^2 = 0.991
==== e(  12) =    -1.07367 eV ==== 
     psi = 0.295*[#  16]+0.295*[#  17]+0.203*[#   2]+0.203*[#  19]+0.078*[#   3]
          +0.078*[#   4]+0.078*[#  20]+0.078*[#  21]+0.023*[#  13]+0.012*[#  10]
          +0.009*[#   6]+0.007*[#   1]+0.007*[#  18]+0.006*[#  11]+0.006*[#  12]
          
    |psi|^2 = 1.377
==== e(  13) =    -0.85135 eV ==== 
     psi = 0.238*[#  16]+0.238*[#  17]+0.127*[#   3]+0.127*[#   4]+0.127*[#  20]
          +0.127*[#  21]+0.007*[#  11]+0.007*[#  12]
    |psi|^2 = 0.998
==== e(  14) =    -0.81406 eV ==== 
     psi = 0.188*[#   3]+0.188*[#   4]+0.188*[#  20]+0.188*[#  21]+0.123*[#  14]
          +0.123*[#  15]+0.064*[#   2]+0.064*[#  19]+0.003*[#  10]
    |psi|^2 = 1.127
==== e(  15) =    -0.16650 eV ==== 
     psi = 0.257*[#  16]+0.257*[#  17]+0.121*[#   3]+0.121*[#   4]+0.121*[#  20]
          +0.121*[#  21]
    |psi|^2 = 0.998
==== e(  16) =     0.05648 eV ==== 
     psi = 0.409*[#  14]+0.409*[#  15]+0.094*[#   2]+0.094*[#  19]+0.014*[#   3]
          +0.014*[#   4]+0.014*[#  20]+0.014*[#  21]+0.006*[#   1]+0.006*[#  18]
          
    |psi|^2 = 1.074
==== e(  17) =     0.53037 eV ==== 
     psi = 0.376*[#  14]+0.376*[#  15]+0.062*[#   3]+0.062*[#   4]+0.062*[#  20]
          +0.062*[#  21]
    |psi|^2 = 0.999
==== e(  18) =     1.30141 eV ==== 
     psi = 0.271*[#  13]+0.225*[#   6]+0.032*[#  11]+0.032*[#  12]+0.031*[#   2]
          +0.031*[#  19]+0.023*[#   3]+0.023*[#   4]+0.023*[#  20]+0.023*[#  21]
          +0.020*[#   1]+0.020*[#  18]+0.002*[#   5]
    |psi|^2 = 0.760
==== e(  19) =     4.73332 eV ==== 
     psi = 0.139*[#   2]+0.139*[#  19]+0.031*[#   1]+0.031*[#  18]+0.008*[#  14]
          +0.008*[#  15]+0.006*[#   3]+0.006*[#   4]+0.006*[#  20]+0.006*[#  21]
          
    |psi|^2 = 0.381
==== e(  20) =     4.97428 eV ==== 
     psi = 0.049*[#  10]+0.035*[#   2]+0.035*[#  19]+0.005*[#   6]
    |psi|^2 = 0.126
==== e(  21) =     5.91400 eV ==== 
     psi = 0.284*[#  10]+0.035*[#   1]+0.035*[#  18]+0.021*[#   2]+0.021*[#  19]
          +0.009*[#   3]+0.009*[#   4]+0.009*[#  20]+0.009*[#  21]+0.004*[#  14]
          +0.004*[#  15]
    |psi|^2 = 0.440
==== e(  22) =     6.09722 eV ==== 
     psi = 0.014*[#   2]+0.014*[#  19]+0.006*[#   6]+0.002*[#  11]+0.002*[#  12]
          
    |psi|^2 = 0.040
==== e(  23) =     7.48667 eV ==== 

    |psi|^2 = 0.005
==== e(  24) =     8.34403 eV ==== 
     psi = 0.052*[#  11]+0.052*[#  12]+0.040*[#   6]+0.008*[#   5]+0.003*[#  10]
          +0.002*[#  13]+0.002*[#   1]+0.002*[#  18]
    |psi|^2 = 0.164
==== e(  25) =     8.39837 eV ==== 
     psi = 0.034*[#  10]+0.005*[#   1]+0.005*[#  18]
    |psi|^2 = 0.047
==== e(  26) =     8.85656 eV ==== 
     psi = 0.016*[#   6]+0.007*[#  11]+0.007*[#  12]+0.001*[#   5]+0.001*[#   2]
          +0.001*[#  19]
    |psi|^2 = 0.038
==== e(  27) =     9.71627 eV ==== 
     psi = 0.049*[#   6]+0.032*[#  11]+0.032*[#  12]+0.005*[#   5]+0.001*[#   3]
          +0.001*[#   4]+0.001*[#  20]+0.001*[#  21]
    |psi|^2 = 0.128
==== e(  28) =     9.95125 eV ==== 
     psi = 0.011*[#  10]+0.003*[#   1]+0.003*[#  18]+0.003*[#   3]+0.003*[#   4]
          +0.003*[#  20]+0.003*[#  21]
    |psi|^2 = 0.030
==== e(  29) =    10.39453 eV ==== 
     psi = 0.033*[#  10]+0.004*[#   1]+0.004*[#  18]
    |psi|^2 = 0.045
==== e(  30) =    10.95396 eV ==== 
     psi = 0.041*[#   6]+0.038*[#  11]+0.038*[#  12]+0.006*[#   5]+0.002*[#  13]
          
    |psi|^2 = 0.130

 k =   0.2000000000  0.1154700538  0.0000000000
==== e(   1) =   -56.95253 eV ==== 
     psi = 0.921*[#   5]+0.038*[#  11]+0.038*[#  12]
    |psi|^2 = 1.000
==== e(   2) =   -33.10576 eV ==== 
     psi = 0.057*[#  10]
    |psi|^2 = 0.058
==== e(   3) =   -32.82101 eV ==== 
     psi = 0.995*[#   7]+0.494*[#   8]+0.494*[#   9]+0.010*[#   6]+0.002*[#  10]
          +0.001*[#  13]
    |psi|^2 = 1.999
==== e(   4) =   -32.74247 eV ==== 
     psi = 0.489*[#   8]+0.489*[#   9]+0.010*[#  11]+0.010*[#  12]
    |psi|^2 = 1.000
==== e(   5) =   -13.19215 eV ==== 
     psi = 0.427*[#   1]+0.427*[#  18]+0.041*[#   6]+0.035*[#  11]+0.035*[#  12]
          +0.012*[#  13]+0.005*[#   3]+0.005*[#   4]+0.005*[#  20]+0.005*[#  21]
          +0.003*[#   5]
    |psi|^2 = 1.000
==== e(   6) =   -13.14643 eV ==== 
     psi = 0.387*[#   1]+0.387*[#  18]+0.053*[#  10]+0.007*[#   2]+0.007*[#  19]
          +0.003*[#   3]+0.003*[#   4]+0.003*[#  20]+0.003*[#  21]+0.002*[#  14]
          +0.002*[#  15]
    |psi|^2 = 0.858
==== e(   7) =    -4.72317 eV ==== 
     psi = 0.283*[#   6]+0.208*[#  10]+0.090*[#  11]+0.090*[#  12]+0.028*[#   1]
          +0.028*[#  18]+0.026*[#  13]+0.018*[#   5]+0.009*[#  16]+0.009*[#  17]
          +0.002*[#   8]+0.002*[#   9]+0.001*[#   7]
    |psi|^2 = 0.795
==== e(   8) =    -3.61916 eV ==== 
     psi = 0.055*[#  14]+0.055*[#  15]+0.013*[#   1]+0.013*[#  18]+0.004*[#   2]
          +0.004*[#  19]
    |psi|^2 = 0.147
==== e(   9) =    -2.51462 eV ==== 
     psi = 0.566*[#  13]+0.080*[#   2]+0.080*[#  19]+0.051*[#  16]+0.051*[#  17]
          +0.033*[#   3]+0.033*[#   4]+0.033*[#  20]+0.033*[#  21]+0.016*[#   6]
          +0.005*[#  11]+0.005*[#  12]+0.003*[#   1]+0.003*[#  18]+0.002*[#   5]
          
    |psi|^2 = 0.997
==== e(  10) =    -2.29908 eV ==== 
     psi = 0.126*[#   3]+0.126*[#   4]+0.126*[#  20]+0.126*[#  21]+0.123*[#  16]
          +0.123*[#  17]+0.067*[#  13]+0.050*[#   2]+0.050*[#  19]+0.026*[#   6]
          +0.013*[#  11]+0.013*[#  12]+0.011*[#   1]+0.011*[#  18]+0.008*[#  10]
          +0.001*[#   5]
    |psi|^2 = 1.001
==== e(  11) =    -2.07258 eV ==== 
     psi = 0.213*[#   3]+0.213*[#   4]+0.213*[#  20]+0.213*[#  21]+0.052*[#   2]
          +0.052*[#  19]+0.026*[#  14]+0.026*[#  15]+0.020*[#   1]+0.020*[#  18]
          
    |psi|^2 = 1.047
==== e(  12) =    -1.13873 eV ==== 
     psi = 0.309*[#  16]+0.309*[#  17]+0.189*[#   2]+0.189*[#  19]+0.060*[#   3]
          +0.060*[#   4]+0.060*[#  20]+0.060*[#  21]+0.052*[#  13]+0.020*[#  10]
          +0.011*[#  11]+0.011*[#  12]+0.010*[#   6]+0.006*[#   1]+0.006*[#  18]
          
    |psi|^2 = 1.352
==== e(  13) =    -0.88618 eV ==== 
     psi = 0.187*[#   3]+0.187*[#   4]+0.187*[#  20]+0.187*[#  21]+0.123*[#  14]
          +0.123*[#  15]
    |psi|^2 = 0.996
==== e(  14) =    -0.82825 eV ==== 
     psi = 0.170*[#  16]+0.170*[#  17]+0.161*[#   3]+0.161*[#   4]+0.161*[#  20]
          +0.161*[#  21]+0.094*[#   2]+0.094*[#  19]+0.007*[#  11]+0.007*[#  12]
          
    |psi|^2 = 1.186
==== e(  15) =    -0.12239 eV ==== 
     psi = 0.324*[#  16]+0.324*[#  17]+0.087*[#   3]+0.087*[#   4]+0.087*[#  20]
          +0.087*[#  21]+0.001*[#  11]+0.001*[#  12]
    |psi|^2 = 0.998
==== e(  16) =    -0.00519 eV ==== 
     psi = 0.402*[#  14]+0.402*[#  15]+0.080*[#   2]+0.080*[#  19]+0.012*[#   3]
          +0.012*[#   4]+0.012*[#  20]+0.012*[#  21]+0.006*[#   1]+0.006*[#  18]
          +0.004*[#  10]
    |psi|^2 = 1.031
==== e(  17) =     0.51851 eV ==== 
     psi = 0.376*[#  14]+0.376*[#  15]+0.062*[#   3]+0.062*[#   4]+0.062*[#  20]
          +0.062*[#  21]
    |psi|^2 = 0.999
==== e(  18) =     1.31251 eV ==== 
     psi = 0.267*[#  13]+0.218*[#   6]+0.038*[#  11]+0.038*[#  12]+0.031*[#   2]
          +0.031*[#  19]+0.023*[#   3]+0.023*[#   4]+0.023*[#  20]+0.023*[#  21]
          +0.019*[#   1]+0.019*[#  18]+0.002*[#   5]+0.001*[#  16]+0.001*[#  17]
          
    |psi|^2 = 0.759
==== e(  19) =     4.89776 eV ==== 
     psi = 0.140*[#   2]+0.140*[#  19]+0.027*[#   1]+0.027*[#  18]+0.008*[#  14]
          +0.008*[#  15]+0.006*[#   3]+0.006*[#   4]+0.006*[#  20]+0.006*[#  21]
          
    |psi|^2 = 0.375
==== e(  20) =     5.09095 eV ==== 
     psi = 0.057*[#  10]+0.035*[#   2]+0.035*[#  19]+0.006*[#   6]
    |psi|^2 = 0.135
==== e(  21) =     5.97936 eV ==== 
     psi = 0.301*[#  10]+0.033*[#   1]+0.033*[#  18]+0.021*[#   2]+0.021*[#  19]
          +0.010*[#   3]+0.010*[#   4]+0.010*[#  20]+0.010*[#  21]+0.004*[#  14]
          +0.004*[#  15]
    |psi|^2 = 0.457
==== e(  22) =     6.20293 eV ==== 
     psi = 0.015*[#   2]+0.015*[#  19]+0.008*[#   6]+0.003*[#  11]+0.003*[#  12]
          
    |psi|^2 = 0.046
==== e(  23) =     7.53092 eV ==== 

    |psi|^2 = 0.004
==== e(  24) =     8.20088 eV ==== 
     psi = 0.054*[#   6]+0.053*[#  11]+0.053*[#  12]+0.010*[#   5]+0.004*[#  10]
          +0.002*[#  13]+0.002*[#   1]+0.002*[#  18]
    |psi|^2 = 0.183
==== e(  25) =     8.26247 eV ==== 
     psi = 0.024*[#  10]+0.003*[#   1]+0.003*[#  18]
    |psi|^2 = 0.033
==== e(  26) =     8.86589 eV ==== 
     psi = 0.025*[#   6]+0.010*[#  11]+0.010*[#  12]+0.002*[#   5]+0.001*[#  16]
          +0.001*[#  17]
    |psi|^2 = 0.053
==== e(  27) =     9.84693 eV ==== 
     psi = 0.064*[#   6]+0.033*[#  11]+0.033*[#  12]+0.007*[#   5]+0.001*[#  16]
          +0.001*[#  17]+0.001*[#   3]+0.001*[#   4]+0.001*[#  20]+0.001*[#  21]
          
    |psi|^2 = 0.145
==== e(  28) =    10.10756 eV ==== 
     psi = 0.016*[#  10]+0.002*[#   3]+0.002*[#   4]+0.002*[#  20]+0.002*[#  21]
          +0.001*[#   1]+0.001*[#  18]
    |psi|^2 = 0.029
==== e(  29) =    10.43984 eV ==== 
     psi = 0.062*[#  10]+0.006*[#   1]+0.006*[#  18]+0.002*[#   3]+0.002*[#   4]
          +0.002*[#  20]+0.002*[#  21]
    |psi|^2 = 0.083
==== e(  30) =    10.84550 eV ==== 
     psi = 0.030*[#   6]+0.028*[#  11]+0.028*[#  12]+0.005*[#   5]+0.003*[#  13]
          
    |psi|^2 = 0.097

 k =   0.2200000000  0.1270170592  0.0000000000
==== e(   1) =   -56.95062 eV ==== 
     psi = 0.919*[#   5]+0.039*[#  11]+0.039*[#  12]+0.002*[#   6]
    |psi|^2 = 1.000
==== e(   2) =   -33.10324 eV ==== 
     psi = 0.058*[#  10]
    |psi|^2 = 0.059
==== e(   3) =   -32.83911 eV ==== 
     psi = 0.996*[#   7]+0.494*[#   8]+0.494*[#   9]+0.010*[#   6]+0.001*[#  10]
          +0.001*[#  13]
    |psi|^2 = 1.999
==== e(   4) =   -32.74684 eV ==== 
     psi = 0.490*[#   8]+0.490*[#   9]+0.010*[#  11]+0.010*[#  12]
    |psi|^2 = 1.000
==== e(   5) =   -13.12107 eV ==== 
     psi = 0.428*[#   1]+0.428*[#  18]+0.037*[#  11]+0.037*[#  12]+0.035*[#   6]
          +0.011*[#  13]+0.005*[#   3]+0.005*[#   4]+0.005*[#  20]+0.005*[#  21]
          +0.003*[#   5]
    |psi|^2 = 1.000
==== e(   6) =   -13.07929 eV ==== 
     psi = 0.393*[#   1]+0.393*[#  18]+0.055*[#  10]+0.008*[#   2]+0.008*[#  19]
          +0.003*[#   3]+0.003*[#   4]+0.003*[#  20]+0.003*[#  21]+0.003*[#  14]
          +0.003*[#  15]
    |psi|^2 = 0.877
==== e(   7) =    -4.60321 eV ==== 
     psi = 0.259*[#   6]+0.193*[#  10]+0.097*[#  11]+0.097*[#  12]+0.028*[#   1]
          +0.028*[#  18]+0.019*[#  13]+0.017*[#   5]+0.014*[#  16]+0.014*[#  17]
          +0.002*[#   8]+0.002*[#   9]
    |psi|^2 = 0.772
==== e(   8) =    -3.59400 eV ==== 
     psi = 0.068*[#  14]+0.068*[#  15]+0.013*[#   1]+0.013*[#  18]+0.005*[#   2]
          +0.005*[#  19]+0.001*[#   3]+0.001*[#   4]+0.001*[#  20]+0.001*[#  21]
          
    |psi|^2 = 0.176
==== e(   9) =    -2.60347 eV ==== 
     psi = 0.218*[#  13]+0.140*[#   3]+0.140*[#   4]+0.140*[#  20]+0.140*[#  21]
          +0.083*[#  16]+0.083*[#  17]+0.013*[#   1]+0.013*[#  18]+0.010*[#   2]
          +0.010*[#  19]+0.004*[#   6]+0.001*[#  11]+0.001*[#  12]
    |psi|^2 = 0.995
==== e(  10) =    -2.37713 eV ==== 
     psi = 0.379*[#  13]+0.210*[#   2]+0.210*[#  19]+0.091*[#  16]+0.091*[#  17]
          +0.033*[#   6]+0.032*[#   3]+0.032*[#   4]+0.032*[#  20]+0.032*[#  21]
          +0.018*[#  11]+0.018*[#  12]+0.003*[#   5]+0.002*[#   1]+0.002*[#  18]
          +0.002*[#  10]
    |psi|^2 = 1.189
==== e(  11) =    -2.32862 eV ==== 
     psi = 0.212*[#   3]+0.212*[#   4]+0.212*[#  20]+0.212*[#  21]+0.115*[#   2]
          +0.115*[#  19]+0.021*[#   1]+0.021*[#  18]+0.021*[#  14]+0.021*[#  15]
          
    |psi|^2 = 1.163
==== e(  12) =    -1.16531 eV ==== 
     psi = 0.302*[#  16]+0.302*[#  17]+0.101*[#  13]+0.049*[#   2]+0.049*[#  19]
          +0.047*[#   3]+0.047*[#   4]+0.047*[#  20]+0.047*[#  21]+0.027*[#  10]
          +0.017*[#  11]+0.017*[#  12]+0.011*[#   6]+0.005*[#   1]+0.005*[#  18]
          +0.001*[#   5]
    |psi|^2 = 1.074
==== e(  13) =    -0.95848 eV ==== 
     psi = 0.187*[#   3]+0.187*[#   4]+0.187*[#  20]+0.187*[#  21]+0.124*[#  14]
          +0.124*[#  15]
    |psi|^2 = 0.996
==== e(  14) =    -0.82724 eV ==== 
     psi = 0.189*[#   3]+0.189*[#   4]+0.189*[#  20]+0.189*[#  21]+0.113*[#  16]
          +0.113*[#  17]+0.094*[#   2]+0.094*[#  19]+0.007*[#  11]+0.007*[#  12]
          
    |psi|^2 = 1.185
==== e(  15) =    -0.06195 eV ==== 
     psi = 0.394*[#  14]+0.394*[#  15]+0.011*[#   3]+0.011*[#   4]+0.011*[#  20]
          +0.011*[#  21]+0.006*[#   1]+0.006*[#  18]
    |psi|^2 = 0.845
==== e(  16) =    -0.04770 eV ==== 
     psi = 0.380*[#  16]+0.380*[#  17]+0.095*[#   2]+0.095*[#  19]+0.058*[#   3]
          +0.058*[#   4]+0.058*[#  20]+0.058*[#  21]+0.004*[#  10]+0.002*[#  11]
          +0.002*[#  12]
    |psi|^2 = 1.191
==== e(  17) =     0.50469 eV ==== 
     psi = 0.376*[#  14]+0.376*[#  15]+0.062*[#   3]+0.062*[#   4]+0.062*[#  20]
          +0.062*[#  21]
    |psi|^2 = 0.999
==== e(  18) =     1.31877 eV ==== 
     psi = 0.261*[#  13]+0.212*[#   6]+0.044*[#  11]+0.044*[#  12]+0.031*[#   2]
          +0.031*[#  19]+0.023*[#   3]+0.023*[#   4]+0.023*[#  20]+0.023*[#  21]
          +0.019*[#   1]+0.019*[#  18]+0.003*[#   5]+0.002*[#  16]+0.002*[#  17]
          
    |psi|^2 = 0.757
==== e(  19) =     5.06828 eV ==== 
     psi = 0.140*[#   2]+0.140*[#  19]+0.024*[#   1]+0.024*[#  18]+0.007*[#  14]
          +0.007*[#  15]+0.006*[#   3]+0.006*[#   4]+0.006*[#  20]+0.006*[#  21]
          
    |psi|^2 = 0.369
==== e(  20) =     5.21762 eV ==== 
     psi = 0.065*[#  10]+0.034*[#   2]+0.034*[#  19]+0.007*[#   6]+0.001*[#  11]
          +0.001*[#  12]
    |psi|^2 = 0.146
==== e(  21) =     6.02447 eV ==== 
     psi = 0.311*[#  10]+0.030*[#   1]+0.030*[#  18]+0.020*[#   2]+0.020*[#  19]
          +0.011*[#   3]+0.011*[#   4]+0.011*[#  20]+0.011*[#  21]+0.004*[#  14]
          +0.004*[#  15]
    |psi|^2 = 0.463
==== e(  22) =     6.31673 eV ==== 
     psi = 0.017*[#   2]+0.017*[#  19]+0.010*[#   6]+0.004*[#  11]+0.004*[#  12]
          
    |psi|^2 = 0.054
==== e(  23) =     7.58918 eV ==== 

    |psi|^2 = 0.003
==== e(  24) =     8.03655 eV ==== 
     psi = 0.068*[#   6]+0.052*[#  11]+0.052*[#  12]+0.011*[#   5]+0.006*[#  10]
          +0.003*[#  13]+0.002*[#   1]+0.002*[#  18]
    |psi|^2 = 0.200
==== e(  25) =     8.10370 eV ==== 
     psi = 0.017*[#  10]+0.002*[#   1]+0.002*[#  18]
    |psi|^2 = 0.023
==== e(  26) =     8.83858 eV ==== 
     psi = 0.041*[#   6]+0.015*[#  11]+0.015*[#  12]+0.004*[#   5]+0.002*[#  16]
          +0.002*[#  17]
    |psi|^2 = 0.082
==== e(  27) =     9.94292 eV ==== 
     psi = 0.083*[#   6]+0.035*[#  11]+0.035*[#  12]+0.008*[#   5]+0.002*[#  16]
          +0.002*[#  17]
    |psi|^2 = 0.169
==== e(  28) =    10.22452 eV ==== 
     psi = 0.023*[#  10]
    |psi|^2 = 0.029
==== e(  29) =    10.59197 eV ==== 
     psi = 0.085*[#  10]+0.008*[#   1]+0.008*[#  18]+0.003*[#   3]+0.003*[#   4]
          +0.003*[#  20]+0.003*[#  21]
    |psi|^2 = 0.115
==== e(  30) =    10.83061 eV ==== 
     psi = 0.015*[#  11]+0.015*[#  12]+0.011*[#   6]+0.003*[#   5]+0.003*[#  13]
          
    |psi|^2 = 0.051

 k =   0.2400000000  0.1385640646  0.0000000000
==== e(   1) =   -56.94863 eV ==== 
     psi = 0.918*[#   5]+0.039*[#  11]+0.039*[#  12]+0.003*[#   6]
    |psi|^2 = 1.000
==== e(   2) =   -33.10071 eV ==== 
     psi = 0.058*[#  10]
    |psi|^2 = 0.059
==== e(   3) =   -32.85745 eV ==== 
     psi = 0.996*[#   7]+0.494*[#   8]+0.494*[#   9]+0.009*[#   6]+0.002*[#  13]
          
    |psi|^2 = 1.998
==== e(   4) =   -32.75125 eV ==== 
     psi = 0.490*[#   8]+0.490*[#   9]+0.010*[#  11]+0.010*[#  12]
    |psi|^2 = 1.000
==== e(   5) =   -13.04621 eV ==== 
     psi = 0.429*[#   1]+0.429*[#  18]+0.038*[#  11]+0.038*[#  12]+0.030*[#   6]
          +0.010*[#  13]+0.005*[#   3]+0.005*[#   4]+0.005*[#  20]+0.005*[#  21]
          +0.003*[#   5]
    |psi|^2 = 1.000
==== e(   6) =   -13.00859 eV ==== 
     psi = 0.400*[#   1]+0.400*[#  18]+0.057*[#  10]+0.008*[#   2]+0.008*[#  19]
          +0.004*[#   3]+0.004*[#   4]+0.004*[#  14]+0.004*[#  15]+0.004*[#  20]
          +0.004*[#  21]
    |psi|^2 = 0.895
==== e(   7) =    -4.48398 eV ==== 
     psi = 0.236*[#   6]+0.177*[#  10]+0.100*[#  11]+0.100*[#  12]+0.028*[#   1]
          +0.028*[#  18]+0.021*[#  16]+0.021*[#  17]+0.016*[#   5]+0.013*[#  13]
          +0.002*[#   8]+0.002*[#   9]+0.001*[#   3]+0.001*[#   4]+0.001*[#  20]
          +0.001*[#  21]
    |psi|^2 = 0.752
==== e(   8) =    -3.57181 eV ==== 
     psi = 0.082*[#  14]+0.082*[#  15]+0.013*[#   1]+0.013*[#  18]+0.005*[#   2]
          +0.005*[#  19]+0.003*[#   3]+0.003*[#   4]+0.003*[#  20]+0.003*[#  21]
          
    |psi|^2 = 0.212
==== e(   9) =    -2.80577 eV ==== 
     psi = 0.170*[#   3]+0.170*[#   4]+0.170*[#  20]+0.170*[#  21]+0.109*[#  13]
          +0.072*[#  16]+0.072*[#  17]+0.014*[#   1]+0.014*[#  18]+0.010*[#   2]
          +0.010*[#  19]+0.005*[#   6]+0.004*[#  11]+0.004*[#  12]
    |psi|^2 = 0.995
==== e(  10) =    -2.58009 eV ==== 
     psi = 0.255*[#   2]+0.255*[#  19]+0.211*[#   3]+0.211*[#   4]+0.211*[#  20]
          +0.211*[#  21]+0.021*[#   1]+0.021*[#  18]+0.016*[#  14]+0.016*[#  15]
          +0.006*[#  10]
    |psi|^2 = 1.436
==== e(  11) =    -2.36249 eV ==== 
     psi = 0.434*[#  13]+0.119*[#  16]+0.119*[#  17]+0.042*[#  10]+0.026*[#   6]
          +0.016*[#   2]+0.016*[#  19]+0.015*[#  11]+0.015*[#  12]+0.012*[#   3]
          +0.012*[#   4]+0.012*[#  20]+0.012*[#  21]+0.003*[#   5]
    |psi|^2 = 0.852
==== e(  12) =    -1.14841 eV ==== 
     psi = 0.317*[#   2]+0.317*[#  19]+0.278*[#  16]+0.278*[#  17]+0.169*[#  13]
          +0.036*[#   3]+0.036*[#   4]+0.036*[#  20]+0.036*[#  21]+0.025*[#  11]
          +0.025*[#  12]+0.013*[#   6]+0.004*[#   1]+0.004*[#  18]+0.002*[#   5]
          
    |psi|^2 = 1.577
==== e(  13) =    -1.02985 eV ==== 
     psi = 0.187*[#   3]+0.187*[#   4]+0.187*[#  20]+0.187*[#  21]+0.124*[#  14]
          +0.124*[#  15]
    |psi|^2 = 0.997
==== e(  14) =    -0.84479 eV ==== 
     psi = 0.210*[#   3]+0.210*[#   4]+0.210*[#  20]+0.210*[#  21]+0.094*[#   2]
          +0.094*[#  19]+0.072*[#  16]+0.072*[#  17]+0.007*[#  11]+0.007*[#  12]
          
    |psi|^2 = 1.185
==== e(  15) =    -0.11313 eV ==== 
     psi = 0.384*[#  14]+0.384*[#  15]+0.011*[#   3]+0.011*[#   4]+0.011*[#  20]
          +0.011*[#  21]+0.005*[#   1]+0.005*[#  18]
    |psi|^2 = 0.822
==== e(  16) =     0.05385 eV ==== 
     psi = 0.420*[#  16]+0.420*[#  17]+0.105*[#   2]+0.105*[#  19]+0.038*[#   3]
          +0.038*[#   4]+0.038*[#  20]+0.038*[#  21]+0.003*[#  10]+0.003*[#  11]
          +0.003*[#  12]
    |psi|^2 = 1.212
==== e(  17) =     0.48929 eV ==== 
     psi = 0.376*[#  14]+0.376*[#  15]+0.062*[#   3]+0.062*[#   4]+0.062*[#  20]
          +0.062*[#  21]
    |psi|^2 = 0.999
==== e(  18) =     1.32113 eV ==== 
     psi = 0.252*[#  13]+0.207*[#   6]+0.050*[#  11]+0.050*[#  12]+0.031*[#   2]
          +0.031*[#  19]+0.023*[#   3]+0.023*[#   4]+0.023*[#  20]+0.023*[#  21]
          +0.018*[#   1]+0.018*[#  18]+0.003*[#   5]+0.002*[#  16]+0.002*[#  17]
          
    |psi|^2 = 0.756
==== e(  19) =     5.24197 eV ==== 
     psi = 0.141*[#   2]+0.141*[#  19]+0.022*[#   1]+0.022*[#  18]+0.007*[#  14]
          +0.007*[#  15]+0.006*[#   3]+0.006*[#   4]+0.006*[#  20]+0.006*[#  21]
          
    |psi|^2 = 0.365
==== e(  20) =     5.35262 eV ==== 
     psi = 0.076*[#  10]+0.034*[#   2]+0.034*[#  19]+0.009*[#   6]+0.002*[#  11]
          +0.002*[#  12]
    |psi|^2 = 0.159
==== e(  21) =     6.04599 eV ==== 
     psi = 0.312*[#  10]+0.026*[#   1]+0.026*[#  18]+0.018*[#   2]+0.018*[#  19]
          +0.011*[#   3]+0.011*[#   4]+0.011*[#  20]+0.011*[#  21]+0.004*[#  14]
          +0.004*[#  15]
    |psi|^2 = 0.453
==== e(  22) =     6.43592 eV ==== 
     psi = 0.017*[#   2]+0.017*[#  19]+0.015*[#   6]+0.006*[#  11]+0.006*[#  12]
          +0.002*[#   5]
    |psi|^2 = 0.064
==== e(  23) =     7.65908 eV ==== 
     psi = 0.001*[#   1]+0.001*[#  18]
    |psi|^2 = 0.004
==== e(  24) =     7.86790 eV ==== 
     psi = 0.081*[#   6]+0.052*[#  11]+0.052*[#  12]+0.012*[#   5]+0.009*[#  10]
          +0.003*[#  13]+0.002*[#   1]+0.002*[#  18]
    |psi|^2 = 0.216
==== e(  25) =     7.94803 eV ==== 
     psi = 0.009*[#  10]+0.001*[#   1]+0.001*[#  18]
    |psi|^2 = 0.013
==== e(  26) =     8.76365 eV ==== 
     psi = 0.063*[#   6]+0.021*[#  11]+0.021*[#  12]+0.006*[#   5]+0.002*[#  16]
          +0.002*[#  17]+0.002*[#  13]
    |psi|^2 = 0.120
==== e(  27) =     9.99102 eV ==== 
     psi = 0.092*[#   6]+0.033*[#  11]+0.033*[#  12]+0.009*[#   5]+0.002*[#  16]
          +0.002*[#  17]
    |psi|^2 = 0.175
==== e(  28) =    10.30855 eV ==== 
     psi = 0.032*[#  10]+0.001*[#  14]+0.001*[#  15]
    |psi|^2 = 0.037
==== e(  29) =    10.81795 eV ==== 
     psi = 0.089*[#  10]+0.007*[#   1]+0.007*[#  18]+0.004*[#   3]+0.004*[#   4]
          +0.004*[#  20]+0.004*[#  21]
    |psi|^2 = 0.119
==== e(  30) =    10.90295 eV ==== 
     psi = 0.007*[#  11]+0.007*[#  12]+0.002*[#  13]+0.001*[#   5]
    |psi|^2 = 0.021

 k =   0.2600000000  0.1501110700  0.0000000000
==== e(   1) =   -56.94671 eV ==== 
     psi = 0.919*[#   5]+0.038*[#  11]+0.038*[#  12]+0.004*[#   6]
    |psi|^2 = 1.000
==== e(   2) =   -33.09820 eV ==== 
     psi = 0.056*[#  10]
    |psi|^2 = 0.058
==== e(   3) =   -32.87616 eV ==== 
     psi = 0.997*[#   7]+0.494*[#   8]+0.494*[#   9]+0.009*[#   6]+0.002*[#  13]
          
    |psi|^2 = 1.998
==== e(   4) =   -32.75576 eV ==== 
     psi = 0.490*[#   8]+0.490*[#   9]+0.009*[#  11]+0.009*[#  12]
    |psi|^2 = 1.000
==== e(   5) =   -12.96848 eV ==== 
     psi = 0.431*[#   1]+0.431*[#  18]+0.038*[#  11]+0.038*[#  12]+0.026*[#   6]
          +0.010*[#  13]+0.005*[#   3]+0.005*[#   4]+0.005*[#  20]+0.005*[#  21]
          +0.002*[#   5]
    |psi|^2 = 1.000
==== e(   6) =   -12.93521 eV ==== 
     psi = 0.408*[#   1]+0.408*[#  18]+0.057*[#  10]+0.008*[#   2]+0.008*[#  19]
          +0.004*[#  14]+0.004*[#  15]+0.004*[#   3]+0.004*[#   4]+0.004*[#  20]
          +0.004*[#  21]
    |psi|^2 = 0.913
==== e(   7) =    -4.37043 eV ==== 
     psi = 0.216*[#   6]+0.160*[#  10]+0.102*[#  11]+0.102*[#  12]+0.030*[#  16]
          +0.030*[#  17]+0.029*[#   1]+0.029*[#  18]+0.015*[#   5]+0.008*[#  13]
          +0.004*[#   3]+0.004*[#   4]+0.004*[#  20]+0.004*[#  21]+0.002*[#   8]
          +0.002*[#   9]
    |psi|^2 = 0.739
==== e(   8) =    -3.55648 eV ==== 
     psi = 0.098*[#  14]+0.098*[#  15]+0.013*[#   1]+0.013*[#  18]+0.007*[#   3]
          +0.007*[#   4]+0.007*[#  20]+0.007*[#  21]+0.006*[#   2]+0.006*[#  19]
          
    |psi|^2 = 0.263
==== e(   9) =    -3.01961 eV ==== 
     psi = 0.179*[#   3]+0.179*[#   4]+0.179*[#  20]+0.179*[#  21]+0.086*[#  13]
          +0.058*[#  16]+0.058*[#  17]+0.018*[#   2]+0.018*[#  19]+0.013*[#   1]
          +0.013*[#  18]+0.006*[#  11]+0.006*[#  12]+0.003*[#   6]
    |psi|^2 = 0.995
==== e(  10) =    -2.82048 eV ==== 
     psi = 0.268*[#   2]+0.268*[#  19]+0.207*[#   3]+0.207*[#   4]+0.207*[#  20]
          +0.207*[#  21]+0.020*[#   1]+0.020*[#  18]+0.011*[#  14]+0.011*[#  15]
          +0.009*[#  10]
    |psi|^2 = 1.437
==== e(  11) =    -2.35206 eV ==== 
     psi = 0.394*[#  13]+0.157*[#  16]+0.157*[#  17]+0.044*[#  10]+0.029*[#   2]
          +0.029*[#  19]+0.020*[#   6]+0.013*[#  11]+0.013*[#  12]+0.009*[#   3]
          +0.009*[#   4]+0.009*[#  20]+0.009*[#  21]+0.002*[#   5]
    |psi|^2 = 0.897
==== e(  12) =    -1.09934 eV ==== 
     psi = 0.311*[#   2]+0.311*[#  19]+0.187*[#   3]+0.187*[#   4]+0.187*[#  20]
          +0.187*[#  21]+0.124*[#  14]+0.124*[#  15]
    |psi|^2 = 1.619
==== e(  13) =    -1.08745 eV ==== 
     psi = 0.249*[#  13]+0.242*[#  16]+0.242*[#  17]+0.034*[#  11]+0.034*[#  12]
          +0.028*[#   3]+0.028*[#   4]+0.028*[#  20]+0.028*[#  21]+0.027*[#   2]
          +0.027*[#  19]+0.014*[#   6]+0.004*[#   1]+0.004*[#  18]+0.002*[#   5]
          +0.001*[#   8]+0.001*[#   9]
    |psi|^2 = 0.994
==== e(  14) =    -0.87514 eV ==== 
     psi = 0.223*[#   3]+0.223*[#   4]+0.223*[#  20]+0.223*[#  21]+0.051*[#  10]
          +0.046*[#  16]+0.046*[#  17]+0.043*[#   2]+0.043*[#  19]+0.007*[#  11]
          +0.007*[#  12]+0.002*[#   7]
    |psi|^2 = 1.136
==== e(  15) =    -0.15839 eV ==== 
     psi = 0.373*[#  14]+0.373*[#  15]+0.010*[#   3]+0.010*[#   4]+0.010*[#  20]
          +0.010*[#  21]+0.005*[#   1]+0.005*[#  18]
    |psi|^2 = 0.797
==== e(  16) =     0.17571 eV ==== 
     psi = 0.446*[#  16]+0.446*[#  17]+0.112*[#   2]+0.112*[#  19]+0.025*[#   3]
          +0.025*[#   4]+0.025*[#  20]+0.025*[#  21]+0.004*[#  11]+0.004*[#  12]
          +0.003*[#  10]
    |psi|^2 = 1.225
==== e(  17) =     0.47281 eV ==== 
     psi = 0.376*[#  14]+0.376*[#  15]+0.062*[#   3]+0.062*[#   4]+0.062*[#  20]
          +0.062*[#  21]
    |psi|^2 = 0.999
==== e(  18) =     1.32079 eV ==== 
     psi = 0.240*[#  13]+0.203*[#   6]+0.058*[#  11]+0.058*[#  12]+0.031*[#   2]
          +0.031*[#  19]+0.022*[#   3]+0.022*[#   4]+0.022*[#  20]+0.022*[#  21]
          +0.017*[#   1]+0.017*[#  18]+0.003*[#   5]+0.003*[#  16]+0.003*[#  17]
          
    |psi|^2 = 0.755
==== e(  19) =     5.41200 eV ==== 
     psi = 0.142*[#   2]+0.142*[#  19]+0.021*[#   1]+0.021*[#  18]+0.007*[#   3]
          +0.007*[#   4]+0.007*[#  20]+0.007*[#  21]+0.005*[#  14]+0.005*[#  15]
          
    |psi|^2 = 0.363
==== e(  20) =     5.49313 eV ==== 
     psi = 0.088*[#  10]+0.033*[#   2]+0.033*[#  19]+0.013*[#   6]+0.003*[#  11]
          +0.003*[#  12]+0.001*[#   5]
    |psi|^2 = 0.178
==== e(  21) =     6.04855 eV ==== 
     psi = 0.295*[#  10]+0.022*[#   1]+0.022*[#  18]+0.016*[#   2]+0.016*[#  19]
          +0.011*[#   3]+0.011*[#   4]+0.011*[#  20]+0.011*[#  21]+0.003*[#  14]
          +0.003*[#  15]
    |psi|^2 = 0.420
==== e(  22) =     6.55562 eV ==== 
     psi = 0.024*[#   6]+0.016*[#   2]+0.016*[#  19]+0.009*[#  11]+0.009*[#  12]
          +0.003*[#   5]
    |psi|^2 = 0.080
==== e(  23) =     7.67231 eV ==== 
     psi = 0.002*[#   1]+0.002*[#  18]
    |psi|^2 = 0.005
==== e(  24) =     7.70703 eV ==== 
     psi = 0.092*[#   6]+0.050*[#  11]+0.050*[#  12]+0.013*[#  10]+0.013*[#   5]
          +0.004*[#  13]+0.002*[#   1]+0.002*[#  18]+0.001*[#  16]+0.001*[#  17]
          
    |psi|^2 = 0.229
==== e(  25) =     7.87730 eV ==== 
     psi = 0.005*[#  10]+0.001*[#  14]+0.001*[#  15]
    |psi|^2 = 0.009
==== e(  26) =     8.64000 eV ==== 
     psi = 0.088*[#   6]+0.026*[#  11]+0.026*[#  12]+0.008*[#   5]+0.003*[#  16]
          +0.003*[#  17]+0.002*[#  13]
    |psi|^2 = 0.159
==== e(  27) =    10.02283 eV ==== 
     psi = 0.092*[#   6]+0.028*[#  11]+0.028*[#  12]+0.008*[#   5]+0.002*[#  16]
          +0.002*[#  17]
    |psi|^2 = 0.163
==== e(  28) =    10.39763 eV ==== 
     psi = 0.039*[#  10]+0.001*[#   1]+0.001*[#  14]+0.001*[#  15]+0.001*[#  18]
          
    |psi|^2 = 0.045
==== e(  29) =    10.86803 eV ==== 
     psi = 0.329*[#  11]+0.329*[#  12]+0.006*[#   8]+0.006*[#   9]+0.005*[#  16]
          +0.005*[#  17]+0.002*[#   3]+0.002*[#   4]+0.002*[#  20]+0.002*[#  21]
          
    |psi|^2 = 0.689
==== e(  30) =    10.99685 eV ==== 
     psi = 0.004*[#   6]+0.003*[#  11]+0.003*[#  12]+0.002*[#  13]
    |psi|^2 = 0.017

 k =   0.2800000000  0.1616580754  0.0000000000
==== e(   1) =   -56.94490 eV ==== 
     psi = 0.921*[#   5]+0.036*[#  11]+0.036*[#  12]+0.006*[#   6]
    |psi|^2 = 1.000
==== e(   2) =   -33.09594 eV ==== 
     psi = 0.054*[#  10]
    |psi|^2 = 0.055
==== e(   3) =   -32.89479 eV ==== 
     psi = 0.997*[#   7]+0.494*[#   8]+0.494*[#   9]+0.008*[#   6]+0.002*[#  13]
          
    |psi|^2 = 1.998
==== e(   4) =   -32.76040 eV ==== 
     psi = 0.491*[#   8]+0.491*[#   9]+0.009*[#  11]+0.009*[#  12]
    |psi|^2 = 1.000
==== e(   5) =   -12.88894 eV ==== 
     psi = 0.434*[#   1]+0.434*[#  18]+0.038*[#  11]+0.038*[#  12]+0.022*[#   6]
          +0.009*[#  13]+0.005*[#   3]+0.005*[#   4]+0.005*[#  20]+0.005*[#  21]
          +0.002*[#   5]
    |psi|^2 = 1.000
==== e(   6) =   -12.86016 eV ==== 
     psi = 0.415*[#   1]+0.415*[#  18]+0.057*[#  10]+0.008*[#   2]+0.008*[#  19]
          +0.005*[#  14]+0.005*[#  15]+0.004*[#   3]+0.004*[#   4]+0.004*[#  20]
          +0.004*[#  21]
    |psi|^2 = 0.931
==== e(   7) =    -4.27022 eV ==== 
     psi = 0.199*[#   6]+0.142*[#  10]+0.099*[#  11]+0.099*[#  12]+0.041*[#  16]
          +0.041*[#  17]+0.030*[#   1]+0.030*[#  18]+0.014*[#   5]+0.010*[#   3]
          +0.010*[#   4]+0.010*[#  20]+0.010*[#  21]+0.003*[#  13]+0.002*[#   8]
          +0.002*[#   9]
    |psi|^2 = 0.740
==== e(   8) =    -3.55736 eV ==== 
     psi = 0.114*[#  14]+0.114*[#  15]+0.021*[#   3]+0.021*[#   4]+0.021*[#  20]
          +0.021*[#  21]+0.015*[#   1]+0.015*[#  18]+0.006*[#   2]+0.006*[#  19]
          
    |psi|^2 = 0.355
==== e(   9) =    -3.22338 eV ==== 
     psi = 0.179*[#   3]+0.179*[#   4]+0.179*[#  20]+0.179*[#  21]+0.078*[#  13]
          +0.047*[#  16]+0.047*[#  17]+0.032*[#   2]+0.032*[#  19]+0.011*[#   1]
          +0.011*[#  18]+0.009*[#  11]+0.009*[#  12]+0.001*[#   6]
    |psi|^2 = 0.995
==== e(  10) =    -3.03807 eV ==== 
     psi = 0.269*[#   2]+0.269*[#  19]+0.194*[#   3]+0.194*[#   4]+0.194*[#  20]
          +0.194*[#  21]+0.018*[#   1]+0.018*[#  18]+0.013*[#  10]+0.008*[#  14]
          +0.008*[#  15]
[...]
          
    |psi|^2 = 0.799
==== e(  19) =     5.26241 eV ==== 
     psi = 0.087*[#   2]+0.087*[#  19]+0.009*[#   3]+0.009*[#   4]+0.009*[#  20]
          +0.009*[#  21]+0.005*[#   1]+0.005*[#  18]+0.003*[#  14]+0.003*[#  15]
          
    |psi|^2 = 0.226
==== e(  20) =     5.40225 eV ==== 
     psi = 0.529*[#   6]+0.445*[#  10]+0.052*[#  13]+0.040*[#  11]+0.040*[#  12]
          +0.033*[#  16]+0.033*[#  17]+0.017*[#   5]+0.008*[#   2]+0.008*[#  19]
          +0.006*[#   7]+0.003*[#   1]+0.003*[#  18]+0.001*[#   3]+0.001*[#   4]
          +0.001*[#  20]+0.001*[#  21]
    |psi|^2 = 1.220
==== e(  21) =     6.59066 eV ==== 
     psi = 0.055*[#  10]
    |psi|^2 = 0.059
==== e(  22) =     7.01836 eV ==== 
     psi = 0.014*[#   6]+0.002*[#  13]+0.001*[#  11]+0.001*[#  12]
    |psi|^2 = 0.020
==== e(  23) =     7.74012 eV ==== 
     psi = 0.072*[#   6]+0.005*[#  11]+0.005*[#  12]+0.003*[#  16]+0.003*[#  17]
          +0.002*[#   5]
    |psi|^2 = 0.092
==== e(  24) =     7.84307 eV ==== 
     psi = 0.002*[#  10]
    |psi|^2 = 0.009
==== e(  25) =     8.66502 eV ==== 
     psi = 0.060*[#   6]+0.003*[#  11]+0.003*[#  12]+0.002*[#  16]+0.002*[#  17]
          +0.001*[#   5]
    |psi|^2 = 0.073
==== e(  26) =     9.37114 eV ==== 
     psi = 0.025*[#   6]+0.005*[#  10]
    |psi|^2 = 0.033
==== e(  27) =     9.59099 eV ==== 

    |psi|^2 = 0.006
==== e(  28) =     9.61557 eV ==== 
     psi = 0.377*[#  11]+0.377*[#  12]+0.005*[#   8]+0.005*[#   9]+0.002*[#   3]
          +0.002*[#   4]+0.002*[#  20]+0.002*[#  21]+0.002*[#  16]+0.002*[#  17]
          
    |psi|^2 = 0.778
==== e(  29) =    10.06084 eV ==== 
     psi = 0.059*[#  10]
    |psi|^2 = 0.064
==== e(  30) =    10.55136 eV ==== 
     psi = 0.014*[#   6]
    |psi|^2 = 0.016

 k =   0.4600000000  0.2655811238  0.0000000000
==== e(   1) =   -56.51824 eV ==== 
     psi = 0.977*[#   5]+0.010*[#   6]+0.003*[#  16]+0.003*[#  17]+0.002*[#  11]
          +0.002*[#  12]
    |psi|^2 = 1.000
==== e(   2) =   -32.82616 eV ==== 
     psi = 0.004*[#  10]
    |psi|^2 = 0.006
==== e(   3) =   -32.43207 eV ==== 
     psi = 0.995*[#   7]+0.493*[#   8]+0.493*[#   9]+0.007*[#  11]+0.007*[#  12]
          +0.003*[#  10]
    |psi|^2 = 1.998
==== e(   4) =   -32.21439 eV ==== 
     psi = 0.494*[#   8]+0.494*[#   9]+0.006*[#  11]+0.006*[#  12]
    |psi|^2 = 1.001
==== e(   5) =   -12.36280 eV ==== 
     psi = 0.479*[#   1]+0.479*[#  18]+0.017*[#  10]+0.011*[#  14]+0.011*[#  15]
          
    |psi|^2 = 1.000
==== e(   6) =   -12.35784 eV ==== 
     psi = 0.467*[#   1]+0.467*[#  18]+0.026*[#  11]+0.026*[#  12]+0.006*[#   6]
          +0.002*[#  13]+0.001*[#  16]+0.001*[#  17]
    |psi|^2 = 1.001
==== e(   7) =    -4.80884 eV ==== 
     psi = 0.207*[#   3]+0.207*[#   4]+0.207*[#  20]+0.207*[#  21]+0.056*[#   6]
          +0.042*[#  13]+0.020*[#  16]+0.020*[#  17]+0.012*[#  11]+0.012*[#  12]
          +0.002*[#   1]+0.002*[#  18]
    |psi|^2 = 0.993
==== e(   8) =    -4.63102 eV ==== 
     psi = 0.219*[#   3]+0.219*[#   4]+0.219*[#  20]+0.219*[#  21]+0.039*[#  10]
          +0.030*[#  14]+0.030*[#  15]+0.002*[#   1]+0.002*[#  18]
    |psi|^2 = 0.982
==== e(   9) =    -3.20991 eV ==== 
     psi = 0.253*[#   2]+0.253*[#  19]+0.161*[#  16]+0.161*[#  17]+0.044*[#   6]
          +0.033*[#  11]+0.033*[#  12]+0.012*[#  13]+0.008*[#   3]+0.008*[#   4]
          +0.008*[#  20]+0.008*[#  21]+0.006*[#   1]+0.006*[#  18]+0.001*[#   5]
          +0.001*[#   8]+0.001*[#   9]
    |psi|^2 = 0.998
==== e(  10) =    -3.19205 eV ==== 
     psi = 0.156*[#  14]+0.156*[#  15]+0.050*[#  10]+0.012*[#   2]+0.012*[#  19]
          +0.009*[#   3]+0.009*[#   4]+0.009*[#  20]+0.009*[#  21]+0.007*[#   1]
          +0.007*[#  18]+0.002*[#   7]
    |psi|^2 = 0.438
==== e(  11) =    -1.99868 eV ==== 
     psi = 0.311*[#   2]+0.311*[#  19]+0.225*[#  16]+0.225*[#  17]+0.159*[#  13]
          +0.034*[#  11]+0.034*[#  12]+0.013*[#  10]+0.012*[#   6]+0.002*[#   3]
          +0.002*[#   4]+0.002*[#  20]+0.002*[#  21]+0.001*[#   1]
    |psi|^2 = 1.337
==== e(  12) =    -1.49102 eV ==== 
     psi = 0.206*[#   3]+0.206*[#   4]+0.206*[#  20]+0.206*[#  21]+0.087*[#  14]
          +0.087*[#  15]+0.014*[#   2]+0.014*[#  19]
    |psi|^2 = 1.026
==== e(  13) =    -1.22573 eV ==== 
     psi = 0.247*[#   3]+0.247*[#   4]+0.247*[#  20]+0.247*[#  21]+0.005*[#  11]
          +0.005*[#  12]
    |psi|^2 = 0.998
==== e(  14) =    -0.08531 eV ==== 
     psi = 0.299*[#  14]+0.299*[#  15]+0.124*[#   2]+0.124*[#  19]+0.008*[#   3]
          +0.008*[#   4]+0.008*[#  20]+0.008*[#  21]+0.004*[#   1]+0.004*[#  18]
          +0.002*[#  10]
    |psi|^2 = 0.885
==== e(  15) =     0.32302 eV ==== 
     psi = 0.704*[#  13]+0.175*[#   2]+0.175*[#  19]+0.063*[#   6]+0.028*[#  16]
          +0.028*[#  17]+0.026*[#   3]+0.026*[#   4]+0.026*[#  20]+0.026*[#  21]
          +0.017*[#  11]+0.017*[#  12]+0.006*[#  10]
    |psi|^2 = 1.319
==== e(  16) =     0.66123 eV ==== 
     psi = 0.411*[#  14]+0.411*[#  15]+0.044*[#   3]+0.044*[#   4]+0.044*[#  20]
          +0.044*[#  21]+0.011*[#   2]+0.011*[#  19]
    |psi|^2 = 1.021
==== e(  17) =     2.15406 eV ==== 
     psi = 0.498*[#  16]+0.498*[#  17]
    |psi|^2 = 1.000
==== e(  18) =     2.26698 eV ==== 
     psi = 0.327*[#  11]+0.327*[#  12]+0.040*[#   6]+0.020*[#   1]+0.020*[#  18]
          +0.018*[#  13]+0.016*[#  16]+0.016*[#  17]+0.004*[#   3]+0.004*[#   4]
          +0.004*[#  20]+0.004*[#  21]+0.004*[#   8]+0.004*[#   9]
    |psi|^2 = 0.811
==== e(  19) =     5.21812 eV ==== 
     psi = 0.081*[#   2]+0.081*[#  19]+0.009*[#   3]+0.009*[#   4]+0.009*[#  20]
          +0.009*[#  21]+0.004*[#   1]+0.004*[#  18]+0.003*[#  14]+0.003*[#  15]
          
    |psi|^2 = 0.210
==== e(  20) =     5.24420 eV ==== 
     psi = 0.584*[#   6]+0.491*[#  10]+0.058*[#  13]+0.039*[#  16]+0.039*[#  17]
          +0.026*[#  11]+0.026*[#  12]+0.015*[#   5]+0.007*[#   2]+0.007*[#  19]
          +0.006*[#   7]+0.002*[#   1]+0.002*[#  18]+0.001*[#   3]+0.001*[#   4]
          +0.001*[#  20]+0.001*[#  21]
    |psi|^2 = 1.309
==== e(  21) =     6.55522 eV ==== 
     psi = 0.047*[#  10]
    |psi|^2 = 0.051
==== e(  22) =     6.96355 eV ==== 
     psi = 0.008*[#   6]+0.001*[#  13]
    |psi|^2 = 0.012
==== e(  23) =     7.92752 eV ==== 
     psi = 0.080*[#   6]+0.004*[#  11]+0.004*[#  12]+0.003*[#  16]+0.003*[#  17]
          +0.002*[#   5]
    |psi|^2 = 0.097
==== e(  24) =     8.11521 eV ==== 

    |psi|^2 = 0.007
==== e(  25) =     8.77690 eV ==== 
     psi = 0.052*[#   6]+0.002*[#  16]+0.002*[#  17]+0.001*[#  11]+0.001*[#  12]
          
    |psi|^2 = 0.061
==== e(  26) =     9.31025 eV ==== 
     psi = 0.003*[#   6]+0.002*[#  10]
    |psi|^2 = 0.006
==== e(  27) =     9.41137 eV ==== 

    |psi|^2 = 0.005
==== e(  28) =     9.53659 eV ==== 
     psi = 0.381*[#  11]+0.381*[#  12]+0.005*[#   8]+0.005*[#   9]+0.002*[#   3]
          +0.002*[#   4]+0.002*[#  20]+0.002*[#  21]
    |psi|^2 = 0.783
==== e(  29) =    10.20535 eV ==== 
     psi = 0.064*[#  10]
    |psi|^2 = 0.068
==== e(  30) =    10.26570 eV ==== 
     psi = 0.011*[#   6]
    |psi|^2 = 0.013

 k =   0.4800000000  0.2771281292  0.0000000000
==== e(   1) =   -56.51796 eV ==== 
     psi = 0.981*[#   5]+0.010*[#   6]+0.003*[#  16]+0.003*[#  17]+0.001*[#  13]
          
    |psi|^2 = 1.000
==== e(   2) =   -32.82583 eV ==== 

    |psi|^2 = 0.003
==== e(   3) =   -32.43566 eV ==== 
     psi = 0.995*[#   7]+0.493*[#   8]+0.493*[#   9]+0.007*[#  11]+0.007*[#  12]
          +0.003*[#  10]
    |psi|^2 = 1.998
==== e(   4) =   -32.21523 eV ==== 
     psi = 0.494*[#   8]+0.494*[#   9]+0.006*[#  11]+0.006*[#  12]
    |psi|^2 = 1.001
==== e(   5) =   -12.34457 eV ==== 
     psi = 0.482*[#   1]+0.482*[#  18]+0.012*[#  10]+0.011*[#  14]+0.011*[#  15]
          
    |psi|^2 = 1.000
==== e(   6) =   -12.33843 eV ==== 
     psi = 0.468*[#   1]+0.468*[#  18]+0.025*[#  11]+0.025*[#  12]+0.006*[#   6]
          +0.002*[#  13]+0.001*[#  16]+0.001*[#  17]
    |psi|^2 = 1.000
==== e(   7) =    -4.85050 eV ==== 
     psi = 0.208*[#   3]+0.208*[#   4]+0.208*[#  20]+0.208*[#  21]+0.055*[#   6]
          +0.042*[#  13]+0.019*[#  16]+0.019*[#  17]+0.011*[#  11]+0.011*[#  12]
          
    |psi|^2 = 0.994
==== e(   8) =    -4.67432 eV ==== 
     psi = 0.220*[#   3]+0.220*[#   4]+0.220*[#  20]+0.220*[#  21]+0.038*[#  10]
          +0.030*[#  14]+0.030*[#  15]
    |psi|^2 = 0.980
==== e(   9) =    -3.19411 eV ==== 
     psi = 0.249*[#   2]+0.249*[#  19]+0.171*[#  16]+0.171*[#  17]+0.043*[#   6]
          +0.030*[#  11]+0.030*[#  12]+0.013*[#  13]+0.007*[#   3]+0.007*[#   4]
          +0.007*[#  20]+0.007*[#  21]+0.006*[#   1]+0.006*[#  18]+0.001*[#   8]
          +0.001*[#   9]
    |psi|^2 = 0.998
==== e(  10) =    -3.18619 eV ==== 
     psi = 0.159*[#  14]+0.159*[#  15]+0.045*[#  10]+0.010*[#   2]+0.010*[#  19]
          +0.009*[#   3]+0.009*[#   4]+0.009*[#  20]+0.009*[#  21]+0.007*[#   1]
          +0.007*[#  18]+0.002*[#   7]
    |psi|^2 = 0.436
==== e(  11) =    -1.99505 eV ==== 
     psi = 0.309*[#   2]+0.309*[#  19]+0.218*[#  16]+0.218*[#  17]+0.156*[#  13]
          +0.036*[#  11]+0.036*[#  12]+0.011*[#  10]+0.011*[#   6]+0.002*[#   3]
          +0.002*[#   4]+0.002*[#  20]+0.002*[#  21]+0.001*[#   1]+0.001*[#   8]
          +0.001*[#   9]+0.001*[#  18]
    |psi|^2 = 1.316
==== e(  12) =    -1.50159 eV ==== 
     psi = 0.206*[#   3]+0.206*[#   4]+0.206*[#  20]+0.206*[#  21]+0.087*[#  14]
          +0.087*[#  15]+0.014*[#   2]+0.014*[#  19]
    |psi|^2 = 1.025
==== e(  13) =    -1.23500 eV ==== 
     psi = 0.247*[#   3]+0.247*[#   4]+0.247*[#  20]+0.247*[#  21]+0.005*[#  11]
          +0.005*[#  12]
    |psi|^2 = 0.998
==== e(  14) =    -0.08801 eV ==== 
     psi = 0.295*[#  14]+0.295*[#  15]+0.124*[#   2]+0.124*[#  19]+0.008*[#   3]
          +0.008*[#   4]+0.008*[#  20]+0.008*[#  21]+0.004*[#   1]+0.004*[#  18]
          +0.002*[#  10]
    |psi|^2 = 0.879
==== e(  15) =     0.33022 eV ==== 
     psi = 0.704*[#  13]+0.178*[#   2]+0.178*[#  19]+0.069*[#   6]+0.027*[#   3]
          +0.027*[#   4]+0.027*[#  20]+0.027*[#  21]+0.025*[#  16]+0.025*[#  17]
          +0.015*[#  11]+0.015*[#  12]+0.007*[#  10]
    |psi|^2 = 1.323
==== e(  16) =     0.65730 eV ==== 
     psi = 0.411*[#  14]+0.411*[#  15]+0.044*[#   3]+0.044*[#   4]+0.044*[#  20]
          +0.044*[#  21]+0.011*[#   2]+0.011*[#  19]
    |psi|^2 = 1.021
==== e(  17) =     2.19732 eV ==== 
     psi = 0.499*[#  16]+0.499*[#  17]
    |psi|^2 = 1.000
==== e(  18) =     2.36715 eV ==== 
     psi = 0.350*[#  11]+0.350*[#  12]+0.020*[#   1]+0.020*[#  18]+0.018*[#  13]
          +0.013*[#   6]+0.012*[#  16]+0.012*[#  17]+0.004*[#   8]+0.004*[#   9]
          +0.004*[#   3]+0.004*[#   4]+0.004*[#  20]+0.004*[#  21]
    |psi|^2 = 0.818
==== e(  19) =     5.13258 eV ==== 
     psi = 0.623*[#   6]+0.076*[#   2]+0.076*[#  19]+0.062*[#  13]+0.044*[#  16]
          +0.044*[#  17]+0.014*[#   5]+0.014*[#  11]+0.014*[#  12]+0.002*[#   1]
          +0.002*[#  18]+0.001*[#   3]+0.001*[#   4]+0.001*[#  20]+0.001*[#  21]
          
    |psi|^2 = 0.978
==== e(  20) =     5.19085 eV ==== 
     psi = 0.524*[#  10]+0.009*[#   3]+0.009*[#   4]+0.009*[#  20]+0.009*[#  21]
          +0.006*[#   7]+0.006*[#   2]+0.006*[#  19]+0.004*[#   1]+0.004*[#  18]
          +0.003*[#  14]+0.003*[#  15]
    |psi|^2 = 0.589
==== e(  21) =     6.53272 eV ==== 
     psi = 0.043*[#  10]
    |psi|^2 = 0.046
==== e(  22) =     6.92842 eV ==== 
     psi = 0.005*[#   6]
    |psi|^2 = 0.008
==== e(  23) =     8.08571 eV ==== 
     psi = 0.096*[#   6]+0.004*[#  16]+0.004*[#  17]+0.003*[#  11]+0.003*[#  12]
          +0.002*[#   5]
    |psi|^2 = 0.112
==== e(  24) =     8.37483 eV ==== 

    |psi|^2 = 0.006
==== e(  25) =     8.77035 eV ==== 
     psi = 0.023*[#   6]
    |psi|^2 = 0.026
==== e(  26) =     9.15823 eV ==== 

    |psi|^2 = 0.006
==== e(  27) =     9.38951 eV ==== 
     psi = 0.101*[#  10]+0.007*[#   6]
    |psi|^2 = 0.110
==== e(  28) =     9.48761 eV ==== 
     psi = 0.383*[#  11]+0.383*[#  12]+0.005*[#   8]+0.005*[#   9]+0.002*[#   3]
          +0.002*[#   4]+0.002*[#  20]+0.002*[#  21]+0.001*[#   2]+0.001*[#  19]
          
    |psi|^2 = 0.789
==== e(  29) =    10.00839 eV ==== 
     psi = 0.007*[#   6]
    |psi|^2 = 0.008
==== e(  30) =    10.42774 eV ==== 
     psi = 0.060*[#  10]
    |psi|^2 = 0.065

 k =  -0.5000000000 -0.2886751346  0.0000000000
==== e(   1) =   -56.51774 eV ==== 
     psi = 0.982*[#   5]+0.010*[#   6]+0.003*[#  16]+0.003*[#  17]+0.001*[#  13]
          
    |psi|^2 = 1.000
==== e(   2) =   -32.82569 eV ==== 

    |psi|^2 = 0.002
==== e(   3) =   -32.43642 eV ==== 
     psi = 0.995*[#   7]+0.493*[#   8]+0.493*[#   9]+0.007*[#  11]+0.007*[#  12]
          +0.003*[#  10]
    |psi|^2 = 1.998
==== e(   4) =   -32.21539 eV ==== 
     psi = 0.494*[#   8]+0.494*[#   9]+0.006*[#  11]+0.006*[#  12]
    |psi|^2 = 1.001
==== e(   5) =   -12.33842 eV ==== 
     psi = 0.483*[#   1]+0.483*[#  18]+0.011*[#  14]+0.011*[#  15]+0.011*[#  10]
          
    |psi|^2 = 1.000
==== e(   6) =   -12.33188 eV ==== 
     psi = 0.469*[#   1]+0.469*[#  18]+0.025*[#  11]+0.025*[#  12]+0.006*[#   6]
          +0.002*[#  13]+0.002*[#  16]+0.002*[#  17]
    |psi|^2 = 0.999
==== e(   7) =    -4.86447 eV ==== 
     psi = 0.209*[#   3]+0.209*[#   4]+0.209*[#  20]+0.209*[#  21]+0.055*[#   6]
          +0.042*[#  13]+0.019*[#  16]+0.019*[#  17]+0.011*[#  11]+0.011*[#  12]
          
    |psi|^2 = 0.994
==== e(   8) =    -4.68884 eV ==== 
     psi = 0.221*[#   3]+0.221*[#   4]+0.221*[#  20]+0.221*[#  21]+0.037*[#  10]
          +0.030*[#  14]+0.030*[#  15]
    |psi|^2 = 0.980
==== e(   9) =    -3.18879 eV ==== 
     psi = 0.248*[#   2]+0.248*[#  19]+0.174*[#  16]+0.174*[#  17]+0.043*[#   6]
          +0.028*[#  11]+0.028*[#  12]+0.013*[#  13]+0.007*[#   3]+0.007*[#   4]
          +0.007*[#  20]+0.007*[#  21]+0.006*[#   1]+0.006*[#  18]+0.001*[#   8]
          +0.001*[#   9]
    |psi|^2 = 0.998
==== e(  10) =    -3.18415 eV ==== 
     psi = 0.160*[#  14]+0.160*[#  15]+0.043*[#  10]+0.010*[#   2]+0.010*[#  19]
          +0.009*[#   3]+0.009*[#   4]+0.009*[#  20]+0.009*[#  21]+0.007*[#   1]
          +0.007*[#  18]+0.002*[#   7]
    |psi|^2 = 0.435
==== e(  11) =    -1.99350 eV ==== 
     psi = 0.308*[#   2]+0.308*[#  19]+0.216*[#  16]+0.216*[#  17]+0.154*[#  13]
          +0.037*[#  11]+0.037*[#  12]+0.011*[#  10]+0.011*[#   6]+0.002*[#   3]
          +0.002*[#   4]+0.002*[#  20]+0.002*[#  21]+0.001*[#   1]+0.001*[#  18]
          +0.001*[#   8]+0.001*[#   9]
    |psi|^2 = 1.309
==== e(  12) =    -1.50512 eV ==== 
     psi = 0.206*[#   3]+0.206*[#   4]+0.206*[#  20]+0.206*[#  21]+0.087*[#  14]
          +0.087*[#  15]+0.014*[#   2]+0.014*[#  19]
    |psi|^2 = 1.025
==== e(  13) =    -1.23810 eV ==== 
     psi = 0.247*[#   3]+0.247*[#   4]+0.247*[#  20]+0.247*[#  21]+0.005*[#  11]
          +0.005*[#  12]
    |psi|^2 = 0.998
==== e(  14) =    -0.08859 eV ==== 
     psi = 0.294*[#  14]+0.294*[#  15]+0.124*[#   2]+0.124*[#  19]+0.008*[#   3]
          +0.008*[#   4]+0.008*[#  20]+0.008*[#  21]+0.004*[#   1]+0.004*[#  18]
          +0.002*[#  10]
    |psi|^2 = 0.877
==== e(  15) =     0.33239 eV ==== 
     psi = 0.703*[#  13]+0.179*[#   2]+0.179*[#  19]+0.072*[#   6]+0.027*[#   3]
          +0.027*[#   4]+0.027*[#  20]+0.027*[#  21]+0.024*[#  16]+0.024*[#  17]
          +0.014*[#  11]+0.014*[#  12]+0.007*[#  10]
    |psi|^2 = 1.324
==== e(  16) =     0.65601 eV ==== 
     psi = 0.411*[#  14]+0.411*[#  15]+0.044*[#   3]+0.044*[#   4]+0.044*[#  20]
          +0.044*[#  21]+0.011*[#   2]+0.011*[#  19]
    |psi|^2 = 1.021
==== e(  17) =     2.21235 eV ==== 
     psi = 0.500*[#  16]+0.500*[#  17]
    |psi|^2 = 1.000
==== e(  18) =     2.40397 eV ==== 
     psi = 0.358*[#  11]+0.358*[#  12]+0.020*[#   1]+0.020*[#  18]+0.019*[#  13]
          +0.010*[#  16]+0.010*[#  17]+0.004*[#   8]+0.004*[#   9]+0.003*[#   3]
          +0.003*[#   4]+0.003*[#  20]+0.003*[#  21]+0.002*[#   6]
    |psi|^2 = 0.820
==== e(  19) =     5.09214 eV ==== 
     psi = 0.638*[#   6]+0.075*[#   2]+0.075*[#  19]+0.064*[#  13]+0.046*[#  16]
          +0.046*[#  17]+0.013*[#   5]+0.008*[#  11]+0.008*[#  12]+0.002*[#   1]
          +0.002*[#  18]+0.001*[#   3]+0.001*[#   4]+0.001*[#  20]+0.001*[#  21]
          
    |psi|^2 = 0.984
==== e(  20) =     5.18220 eV ==== 
     psi = 0.537*[#  10]+0.008*[#   3]+0.008*[#   4]+0.008*[#  20]+0.008*[#  21]
          +0.006*[#   7]+0.005*[#   2]+0.005*[#  19]+0.003*[#   1]+0.003*[#  18]
          +0.003*[#  14]+0.003*[#  15]
    |psi|^2 = 0.600
==== e(  21) =     6.52595 eV ==== 
     psi = 0.042*[#  10]
    |psi|^2 = 0.045
==== e(  22) =     6.91658 eV ==== 
     psi = 0.004*[#   6]
    |psi|^2 = 0.006
==== e(  23) =     8.15487 eV ==== 
     psi = 0.109*[#   6]+0.005*[#  16]+0.005*[#  17]+0.002*[#  11]+0.002*[#  12]
          +0.002*[#   5]
    |psi|^2 = 0.125
==== e(  24) =     8.52107 eV ==== 

    |psi|^2 = 0.005
==== e(  25) =     8.73933 eV ==== 
     psi = 0.003*[#   6]
    |psi|^2 = 0.003
==== e(  26) =     9.01092 eV ==== 

    |psi|^2 = 0.005
==== e(  27) =     9.47114 eV ==== 
     psi = 0.384*[#  11]+0.384*[#  12]+0.109*[#  10]+0.005*[#   8]+0.005*[#   9]
          +0.002*[#   3]+0.002*[#   4]+0.002*[#  20]+0.002*[#  21]
    |psi|^2 = 0.898
==== e(  28) =     9.47945 eV ==== 
     psi = 0.016*[#   6]+0.001*[#   2]+0.001*[#  19]
    |psi|^2 = 0.021
==== e(  29) =     9.87236 eV ==== 
     psi = 0.001*[#   6]
    |psi|^2 = 0.001
==== e(  30) =    10.55541 eV ==== 
     psi = 0.057*[#  10]
    |psi|^2 = 0.061

Lowdin Charges: 

     Atom #   1: total charge =   5.3778, s =  1.8109, p =  3.5670, d =  0.0000, 
                 spin up      =   2.6768, s =  0.9061, 
                 spin up      =   2.6768, p =  1.7707, pz=  0.4702, px=  0.6503, py=  0.6503, 
                 spin up      =   2.6768, d =  0.0000, dz2=  0.0000, dxz=  0.0000, dyz=  0.0000, dx2-y2=  0.0000, dxy=  0.0000, 
                 spin down    =   2.7010, s =  0.9048, 
                 spin down    =   2.7010, p =  1.7962, pz=  0.4815, px=  0.6574, py=  0.6574, 
                 spin down    =   2.7010, d =  0.0000, dz2=  0.0000, dxz=  0.0000, dyz=  0.0000, dx2-y2=  0.0000, dxy=  0.0000, 
                 polarization =  -0.0242, s =  0.0012, p = -0.0255, d =  0.0000, 
     Atom #   2: total charge =  13.2018, s =  2.6065, p =  7.0950, d =  3.5003, 
                 spin up      =   7.0157, s =  1.3071, 
                 spin up      =   7.0157, p =  3.5614, pz=  1.2786, px=  1.1414, py=  1.1414, 
                 spin up      =   7.0157, d =  2.1473, dz2=  0.5522, dxz=  0.2010, dyz=  0.2010, dx2-y2=  0.5965, dxy=  0.5965, 
                 spin down    =   6.1861, s =  1.2994, 
                 spin down    =   6.1861, p =  3.5337, pz=  1.2772, px=  1.1282, py=  1.1282, 
                 spin down    =   6.1861, d =  1.3530, dz2=  0.4888, dxz=  0.1546, dyz=  0.1546, dx2-y2=  0.2775, dxy=  0.2775, 
                 polarization =   0.8297, s =  0.0077, p =  0.0277, d =  0.7943, 
     Atom #   3: total charge =   5.3778, s =  1.8109, p =  3.5670, d =  0.0000, 
                 spin up      =   2.6768, s =  0.9061, 
                 spin up      =   2.6768, p =  1.7707, pz=  0.4702, px=  0.6503, py=  0.6503, 
                 spin up      =   2.6768, d =  0.0000, dz2=  0.0000, dxz=  0.0000, dyz=  0.0000, dx2-y2=  0.0000, dxy=  0.0000, 
                 spin down    =   2.7010, s =  0.9048, 
                 spin down    =   2.7010, p =  1.7962, pz=  0.4815, px=  0.6574, py=  0.6574, 
                 spin down    =   2.7010, d =  0.0000, dz2=  0.0000, dxz=  0.0000, dyz=  0.0000, dx2-y2=  0.0000, dxy=  0.0000, 
                 polarization =  -0.0242, s =  0.0012, p = -0.0255, d =  0.0000, 
     Spilling Parameter:   0.0417

     PROJWFC      :      7.48s CPU      8.45s WALL


   This run was terminated on:  22: 0:21  28Jan2021            

=------------------------------------------------------------------------------=
   JOB DONE.
=------------------------------------------------------------------------------=
