
     Program PWSCF v.6.6 starts on 28Jan2021 at 21:54:20 

     This program is part of the open-source Quantum ESPRESSO suite
     for quantum simulation of materials; please cite
         "P. Giannozzi et al., J. Phys.:Condens. Matter 21 395502 (2009);
         "P. Giannozzi et al., J. Phys.:Condens. Matter 29 465901 (2017);
          URL http://www.quantum-espresso.org", 
     in publications or presentations arising from this work. More details at
     http://www.quantum-espresso.org/quote

     Parallel version (MPI), running on     2 processors

     MPI processes distributed on     1 nodes
     R & G space division:  proc/nbgrp/npool/nimage =       2
     Fft bands division:     nmany     =       1
     Waiting for input...
     Reading input from standard input

     Current dimensions of program PWSCF are:
     Max number of different atomic species (ntypx) = 10
     Max number of k-points (npk) =  40000
     Max angular momentum in pseudopotentials (lmaxx) =  3

     Atomic positions and unit cell read from directory:
     ./tmp/NbS2.save/
     Atomic positions from file used, from input discarded

     file Nb.pbe-spn-rrkjus_psl.1.0.0.UPF: wavefunction(s)  4S 4P renormalized

     Subspace diagonalization in iterative solution of the eigenvalue problem:
     a serial algorithm will be used


     Parallelization info
     --------------------
     sticks:   dense  smooth     PW     G-vecs:    dense   smooth      PW
     Min         972     189     60               210176    18015    3013
     Max         973     190     61               210207    18026    3018
     Sum        1945     379    121               420383    36041    6031



     bravais-lattice index     =            4
     lattice parameter (alat)  =       6.2739  a.u.
     unit-cell volume          =    1288.3486 (a.u.)^3
     number of atoms/cell      =            3
     number of atomic types    =            2
     number of electrons       =        25.00
     number of Kohn-Sham states=           30
     kinetic-energy cutoff     =      35.0000  Ry
     charge density cutoff     =     720.0000  Ry
     Exchange-correlation= PBE
                           (   1   4   3   4   0   0   0)

     celldm(1)=   6.273891  celldm(2)=   6.024096  celldm(3)=   6.024096
     celldm(4)=   0.000000  celldm(5)=   0.000000  celldm(6)=   0.000000

     crystal axes: (cart. coord. in units of alat)
               a(1) = (   1.000000   0.000000   0.000000 )  
               a(2) = (  -0.500000   0.866025   0.000000 )  
               a(3) = (   0.000000   0.000000   6.024096 )  

     reciprocal axes: (cart. coord. in units 2 pi/alat)
               b(1) = (  1.000000  0.577350 -0.000000 )  
               b(2) = (  0.000000  1.154701  0.000000 )  
               b(3) = (  0.000000 -0.000000  0.166000 )  


     PseudoPot. # 1 for Nb read from file:
     ../Nb.pbe-spn-rrkjus_psl.1.0.0.UPF
     MD5 check sum: 6ee677a9f002bd3e3657f443f129faad
     Pseudo is Ultrasoft + core correction, Zval = 13.0
     Generated using "atomic" code by A. Dal Corso v.6.2.2
     Using radial grid of 1227 points,  6 beta functions with: 
                l(1) =   0
                l(2) =   0
                l(3) =   1
                l(4) =   1
                l(5) =   2
                l(6) =   2
     Q(r) pseudized with 0 coefficients 


     PseudoPot. # 2 for S  read from file:
     ../S.pbe-nl-rrkjus_psl.1.0.0.UPF
     MD5 check sum: 816524f9d2370a67bf2b5249ef8e004b
     Pseudo is Ultrasoft + core correction, Zval =  6.0
     Generated using "atomic" code by A. Dal Corso v.6.3
     Using radial grid of 1151 points,  4 beta functions with: 
                l(1) =   0
                l(2) =   0
                l(3) =   1
                l(4) =   1
     Q(r) pseudized with 0 coefficients 


     atomic species   valence    mass     pseudopotential
        Nb            13.00    92.90600     Nb( 1.00)
        S              6.00    32.06500     S ( 1.00)

     Starting magnetic structure 
     atomic species   magnetization
        Nb           0.100
        S            0.000

     12 Sym. Ops. (no inversion) found


                                    s                        frac. trans.

      isym =  1     identity                                     

 cryst.   s( 1) = (     1          0          0      )
                  (     0          1          0      )
                  (     0          0          1      )

 cart.    s( 1) = (  1.0000000  0.0000000  0.0000000 )
                  (  0.0000000  1.0000000  0.0000000 )
                  (  0.0000000  0.0000000  1.0000000 )


      isym =  2     180 deg rotation - cart. axis [0,1,0]        

 cryst.   s( 2) = (    -1          0          0      )
                  (     1          1          0      )
                  (     0          0         -1      )

 cart.    s( 2) = ( -1.0000000  0.0000000  0.0000000 )
                  (  0.0000000  1.0000000  0.0000000 )
                  (  0.0000000  0.0000000 -1.0000000 )


      isym =  3     120 deg rotation - cryst. axis [0,0,1]       

 cryst.   s( 3) = (     0          1          0      )
                  (    -1         -1          0      )
                  (     0          0          1      )

 cart.    s( 3) = ( -0.5000000 -0.8660254  0.0000000 )
                  (  0.8660254 -0.5000000  0.0000000 )
                  (  0.0000000  0.0000000  1.0000000 )


      isym =  4     120 deg rotation - cryst. axis [0,0,-1]      

 cryst.   s( 4) = (    -1         -1          0      )
                  (     1          0          0      )
                  (     0          0          1      )

 cart.    s( 4) = ( -0.5000000  0.8660254  0.0000000 )
                  ( -0.8660254 -0.5000000  0.0000000 )
                  (  0.0000000  0.0000000  1.0000000 )


      isym =  5     180 deg rotation - cryst. axis [1,-1,0]      

 cryst.   s( 5) = (     0         -1          0      )
                  (    -1          0          0      )
                  (     0          0         -1      )

 cart.    s( 5) = (  0.5000000 -0.8660254  0.0000000 )
                  ( -0.8660254 -0.5000000  0.0000000 )
                  (  0.0000000  0.0000000 -1.0000000 )


      isym =  6     180 deg rotation - cryst. axis [2,1,0]       

 cryst.   s( 6) = (     1          1          0      )
                  (     0         -1          0      )
                  (     0          0         -1      )

 cart.    s( 6) = (  0.5000000  0.8660254  0.0000000 )
                  (  0.8660254 -0.5000000  0.0000000 )
                  (  0.0000000  0.0000000 -1.0000000 )


      isym =  7     inv. 180 deg rotation - cart. axis [0,0,1]   

 cryst.   s( 7) = (     1          0          0      )
                  (     0          1          0      )
                  (     0          0         -1      )

 cart.    s( 7) = (  1.0000000  0.0000000  0.0000000 )
                  (  0.0000000  1.0000000  0.0000000 )
                  (  0.0000000  0.0000000 -1.0000000 )


      isym =  8     inv. 180 deg rotation - cart. axis [1,0,0]   

 cryst.   s( 8) = (    -1          0          0      )
                  (     1          1          0      )
                  (     0          0          1      )

 cart.    s( 8) = ( -1.0000000  0.0000000  0.0000000 )
                  (  0.0000000  1.0000000  0.0000000 )
                  (  0.0000000  0.0000000  1.0000000 )


      isym =  9     inv.  60 deg rotation - cryst. axis [0,0,1]  

 cryst.   s( 9) = (    -1         -1          0      )
                  (     1          0          0      )
                  (     0          0         -1      )

 cart.    s( 9) = ( -0.5000000  0.8660254  0.0000000 )
                  ( -0.8660254 -0.5000000  0.0000000 )
                  (  0.0000000  0.0000000 -1.0000000 )


      isym = 10     inv.  60 deg rotation - cryst. axis [0,0,-1] 

 cryst.   s(10) = (     0          1          0      )
                  (    -1         -1          0      )
                  (     0          0         -1      )

 cart.    s(10) = ( -0.5000000 -0.8660254  0.0000000 )
                  (  0.8660254 -0.5000000  0.0000000 )
                  (  0.0000000  0.0000000 -1.0000000 )


      isym = 11     inv. 180 deg rotation - cryst. axis [0,1,0]  

 cryst.   s(11) = (     1          1          0      )
                  (     0         -1          0      )
                  (     0          0          1      )

 cart.    s(11) = (  0.5000000  0.8660254  0.0000000 )
                  (  0.8660254 -0.5000000  0.0000000 )
                  (  0.0000000  0.0000000  1.0000000 )


      isym = 12     inv. 180 deg rotation - cryst. axis [1,1,0]  

 cryst.   s(12) = (     0         -1          0      )
                  (    -1          0          0      )
                  (     0          0          1      )

 cart.    s(12) = (  0.5000000 -0.8660254  0.0000000 )
                  ( -0.8660254 -0.5000000  0.0000000 )
                  (  0.0000000  0.0000000  1.0000000 )


     point group D_3h (-62m)
     there are  6 classes
     the character table:

       E     2C3   3C2   s_h   2S3   3s_v 
A'_1   1.00  1.00  1.00  1.00  1.00  1.00
A'_2   1.00  1.00 -1.00  1.00  1.00 -1.00
E'     2.00 -1.00  0.00  2.00 -1.00  0.00
A''1   1.00  1.00  1.00 -1.00 -1.00 -1.00
A''2   1.00  1.00 -1.00 -1.00 -1.00  1.00
E''    2.00 -1.00  0.00 -2.00  1.00  0.00

     the symmetry operations in each class and the name of the first element:

     E        1
          identity                                               
     2C3      3    4
          120 deg rotation - cryst. axis [0,0,1]                 
     3C2      2    6    5
          180 deg rotation - cart. axis [0,1,0]                  
     s_h      7
          inv. 180 deg rotation - cart. axis [0,0,1]             
     2S3      9   10
          inv.  60 deg rotation - cryst. axis [0,0,1]            
     3s_v     8   11   12
          inv. 180 deg rotation - cart. axis [1,0,0]             

   Cartesian axes

     site n.     atom                  positions (alat units)
         1           S   tau(   1) = (   0.0000000   0.5773503   3.8149545  )
         2           Nb  tau(   2) = (   0.5000000   0.2886751   3.0120482  )
         3           S   tau(   3) = (   0.0000000   0.5773503   2.2091419  )

   Crystallographic axes

     site n.     atom                  positions (cryst. coord.)
         1           S   tau(   1) = (  0.3333333  0.6666667  0.6332824  )
         2           Nb  tau(   2) = (  0.6666667  0.3333333  0.5000000  )
         3           S   tau(   3) = (  0.3333333  0.6666667  0.3667176  )

     number of k points=    26  Methfessel-Paxton smearing, width (Ry)=  0.0200
                       cart. coord. in units 2pi/alat
        k(    1) = (   0.0000000   0.0000000   0.0000000), wk =   0.0200000
        k(    2) = (   0.0200000   0.0115470   0.0000000), wk =   0.0400000
        k(    3) = (   0.0400000   0.0230940   0.0000000), wk =   0.0400000
        k(    4) = (   0.0600000   0.0346410   0.0000000), wk =   0.0400000
        k(    5) = (   0.0800000   0.0461880   0.0000000), wk =   0.0400000
        k(    6) = (   0.1000000   0.0577350   0.0000000), wk =   0.0400000
        k(    7) = (   0.1200000   0.0692820   0.0000000), wk =   0.0400000
        k(    8) = (   0.1400000   0.0808290   0.0000000), wk =   0.0400000
        k(    9) = (   0.1600000   0.0923760   0.0000000), wk =   0.0400000
        k(   10) = (   0.1800000   0.1039230   0.0000000), wk =   0.0400000
        k(   11) = (   0.2000000   0.1154701   0.0000000), wk =   0.0400000
        k(   12) = (   0.2200000   0.1270171   0.0000000), wk =   0.0400000
        k(   13) = (   0.2400000   0.1385641   0.0000000), wk =   0.0400000
        k(   14) = (   0.2600000   0.1501111   0.0000000), wk =   0.0400000
        k(   15) = (   0.2800000   0.1616581   0.0000000), wk =   0.0400000
        k(   16) = (   0.3000000   0.1732051   0.0000000), wk =   0.0400000
        k(   17) = (   0.3200000   0.1847521   0.0000000), wk =   0.0400000
        k(   18) = (   0.3400000   0.1962991   0.0000000), wk =   0.0400000
        k(   19) = (   0.3600000   0.2078461   0.0000000), wk =   0.0400000
        k(   20) = (   0.3800000   0.2193931   0.0000000), wk =   0.0400000
        k(   21) = (   0.4000000   0.2309401   0.0000000), wk =   0.0400000
        k(   22) = (   0.4200000   0.2424871   0.0000000), wk =   0.0400000
        k(   23) = (   0.4400000   0.2540341   0.0000000), wk =   0.0400000
        k(   24) = (   0.4600000   0.2655811   0.0000000), wk =   0.0400000
        k(   25) = (   0.4800000   0.2771281   0.0000000), wk =   0.0400000
        k(   26) = (  -0.5000000  -0.2886751   0.0000000), wk =   0.0200000

                       cryst. coord.
        k(    1) = (   0.0000000   0.0000000   0.0000000), wk =   0.0200000
        k(    2) = (   0.0200000   0.0000000   0.0000000), wk =   0.0400000
        k(    3) = (   0.0400000   0.0000000   0.0000000), wk =   0.0400000
        k(    4) = (   0.0600000   0.0000000   0.0000000), wk =   0.0400000
        k(    5) = (   0.0800000   0.0000000   0.0000000), wk =   0.0400000
        k(    6) = (   0.1000000   0.0000000   0.0000000), wk =   0.0400000
        k(    7) = (   0.1200000   0.0000000   0.0000000), wk =   0.0400000
        k(    8) = (   0.1400000   0.0000000   0.0000000), wk =   0.0400000
        k(    9) = (   0.1600000   0.0000000   0.0000000), wk =   0.0400000
        k(   10) = (   0.1800000   0.0000000   0.0000000), wk =   0.0400000
        k(   11) = (   0.2000000   0.0000000   0.0000000), wk =   0.0400000
        k(   12) = (   0.2200000   0.0000000   0.0000000), wk =   0.0400000
        k(   13) = (   0.2400000   0.0000000   0.0000000), wk =   0.0400000
        k(   14) = (   0.2600000   0.0000000   0.0000000), wk =   0.0400000
        k(   15) = (   0.2800000   0.0000000   0.0000000), wk =   0.0400000
        k(   16) = (   0.3000000   0.0000000   0.0000000), wk =   0.0400000
        k(   17) = (   0.3200000   0.0000000   0.0000000), wk =   0.0400000
        k(   18) = (   0.3400000   0.0000000   0.0000000), wk =   0.0400000
        k(   19) = (   0.3600000   0.0000000   0.0000000), wk =   0.0400000
        k(   20) = (   0.3800000   0.0000000   0.0000000), wk =   0.0400000
        k(   21) = (   0.4000000   0.0000000   0.0000000), wk =   0.0400000
        k(   22) = (   0.4200000   0.0000000   0.0000000), wk =   0.0400000
        k(   23) = (   0.4400000   0.0000000   0.0000000), wk =   0.0400000
        k(   24) = (   0.4600000   0.0000000   0.0000000), wk =   0.0400000
        k(   25) = (   0.4800000   0.0000000   0.0000000), wk =   0.0400000
        k(   26) = (  -0.5000000  -0.0000000   0.0000000), wk =   0.0200000

     Dense  grid:   420383 G-vectors     FFT dimensions: (  54,  54, 324)

     Smooth grid:    36041 G-vectors     FFT dimensions: (  24,  24, 144)

     Dynamical RAM for                 wfc:       1.03 MB

     Dynamical RAM for     wfc (w. buffer):       1.03 MB

     Dynamical RAM for           str. fact:       6.41 MB

     Dynamical RAM for           local pot:       0.00 MB

     Dynamical RAM for          nlocal pot:       1.17 MB

     Dynamical RAM for                qrad:       4.31 MB

     Dynamical RAM for          rho,v,vnew:      40.87 MB

     Dynamical RAM for           G-vectors:      12.16 MB

     Dynamical RAM for          h,s,v(r/c):       0.16 MB

     Dynamical RAM for          <psi|beta>:       0.02 MB

     Dynamical RAM for                 psi:       2.06 MB

     Dynamical RAM for                hpsi:       2.06 MB

     Dynamical RAM for                spsi:       2.06 MB

     Dynamical RAM for      wfcinit/wfcrot:       2.08 MB

     Dynamical RAM for           addusdens:     606.13 MB

     Estimated static dynamical RAM per process >      97.19 MB

     Estimated max dynamical RAM per process >     703.32 MB

     Estimated total dynamical RAM >       1.37 GB
     Generating pointlists ...
     new r_m :   0.4079 (alat units)  2.5593 (a.u.) for type    1
     new r_m :   0.4079 (alat units)  2.5593 (a.u.) for type    2

     The potential is recalculated from file :
     ./tmp/NbS2.save/charge-density

     Starting wfcs are   21 randomized atomic wfcs +    9 random wfcs

     Band Structure Calculation
     Davidson diagonalization with overlap

     Computing kpt #:     1  of    52
     total cpu time spent up to now is        8.0 secs

     Computing kpt #:     2  of    52
     total cpu time spent up to now is       10.3 secs

     Computing kpt #:     3  of    52
     total cpu time spent up to now is       12.9 secs

     Computing kpt #:     4  of    52
     total cpu time spent up to now is       15.6 secs

     Computing kpt #:     5  of    52
     total cpu time spent up to now is       17.8 secs

     Computing kpt #:     6  of    52
     total cpu time spent up to now is       20.2 secs

     Computing kpt #:     7  of    52
     total cpu time spent up to now is       22.5 secs

     Computing kpt #:     8  of    52
     total cpu time spent up to now is       24.8 secs

     Computing kpt #:     9  of    52
     total cpu time spent up to now is       27.6 secs

     Computing kpt #:    10  of    52
     total cpu time spent up to now is       30.1 secs

     Computing kpt #:    11  of    52
     total cpu time spent up to now is       32.2 secs

     Computing kpt #:    12  of    52
     total cpu time spent up to now is       34.5 secs

     Computing kpt #:    13  of    52
     total cpu time spent up to now is       36.9 secs

     Computing kpt #:    14  of    52
     total cpu time spent up to now is       39.6 secs

     Computing kpt #:    15  of    52
     total cpu time spent up to now is       41.8 secs

     Computing kpt #:    16  of    52
     total cpu time spent up to now is       44.2 secs

     Computing kpt #:    17  of    52
     total cpu time spent up to now is       46.4 secs

     Computing kpt #:    18  of    52
     total cpu time spent up to now is       48.7 secs

     Computing kpt #:    19  of    52
     total cpu time spent up to now is       51.0 secs

     Computing kpt #:    20  of    52
     total cpu time spent up to now is       53.1 secs

     Computing kpt #:    21  of    52
     total cpu time spent up to now is       55.6 secs

     Computing kpt #:    22  of    52
     total cpu time spent up to now is       57.5 secs

     Computing kpt #:    23  of    52
     total cpu time spent up to now is       59.5 secs

     Computing kpt #:    24  of    52
     total cpu time spent up to now is       61.8 secs

     Computing kpt #:    25  of    52
     total cpu time spent up to now is       64.0 secs

     Computing kpt #:    26  of    52
     total cpu time spent up to now is       67.0 secs

     Computing kpt #:    27  of    52
     total cpu time spent up to now is       69.6 secs

     Computing kpt #:    28  of    52
     total cpu time spent up to now is       72.0 secs

     Computing kpt #:    29  of    52
     total cpu time spent up to now is       74.7 secs

     Computing kpt #:    30  of    52
     total cpu time spent up to now is       77.6 secs

     Computing kpt #:    31  of    52
     total cpu time spent up to now is       80.2 secs

     Computing kpt #:    32  of    52
     total cpu time spent up to now is       82.5 secs

     Computing kpt #:    33  of    52
     total cpu time spent up to now is       85.0 secs

     Computing kpt #:    34  of    52
     total cpu time spent up to now is       87.6 secs

     Computing kpt #:    35  of    52
     total cpu time spent up to now is       90.0 secs

     Computing kpt #:    36  of    52
     total cpu time spent up to now is       92.3 secs

     Computing kpt #:    37  of    52
     total cpu time spent up to now is       94.7 secs

     Computing kpt #:    38  of    52
     total cpu time spent up to now is       97.0 secs

     Computing kpt #:    39  of    52
     total cpu time spent up to now is       99.6 secs

     Computing kpt #:    40  of    52
     total cpu time spent up to now is      102.7 secs

     Computing kpt #:    41  of    52
     total cpu time spent up to now is      105.2 secs

     Computing kpt #:    42  of    52
     total cpu time spent up to now is      107.6 secs

     Computing kpt #:    43  of    52
     total cpu time spent up to now is      109.9 secs

     Computing kpt #:    44  of    52
     total cpu time spent up to now is      112.2 secs

     Computing kpt #:    45  of    52
     total cpu time spent up to now is      114.7 secs

     Computing kpt #:    46  of    52
     total cpu time spent up to now is      117.3 secs

     Computing kpt #:    47  of    52
     total cpu time spent up to now is      119.3 secs

     Computing kpt #:    48  of    52
     total cpu time spent up to now is      121.5 secs

     Computing kpt #:    49  of    52
     total cpu time spent up to now is      123.6 secs

     Computing kpt #:    50  of    52
     total cpu time spent up to now is      125.9 secs

     Computing kpt #:    51  of    52
     total cpu time spent up to now is      128.5 secs

     Computing kpt #:    52  of    52
     total cpu time spent up to now is      131.2 secs

     ethr =  4.00E-11,  avg # of iterations = 49.6

     total cpu time spent up to now is      131.2 secs

     End of band structure calculation

 ------ SPIN UP ------------


          k = 0.0000 0.0000 0.0000 (  4457 PWs)   bands (ev):

   -56.9633 -33.1190 -32.7177 -32.7177 -13.5639 -13.4978  -5.4210  -3.7869
    -2.9558  -1.2140  -1.2140  -0.4040  -0.4040  -0.0612  -0.0612   0.5525
     0.5525   1.0529   3.8304   4.4626   5.3833   5.6303   7.2807   7.7548
     7.8089   8.6163  10.2672  10.2672  10.6054  10.6054

     occupation numbers 
     1.0000   1.0000   1.0000   1.0000   1.0000   1.0000   1.0000   1.0000
     1.0000   1.0159   1.0159  -0.0354  -0.0354  -0.0013  -0.0013  -0.0000
    -0.0000  -0.0000  -0.0000  -0.0000  -0.0000  -0.0000  -0.0000  -0.0000
    -0.0000  -0.0000  -0.0000  -0.0000  -0.0000  -0.0000

          k = 0.0200 0.0115 0.0000 (  4465 PWs)   bands (ev):

   -56.9632 -33.1189 -32.7190 -32.7180 -13.5599 -13.4940  -5.4131  -3.7849
    -2.9500  -1.2246  -1.2078  -0.4248  -0.4105  -0.0873  -0.0648   0.5408
     0.5528   1.0625   3.8455   4.4691   5.3921   5.6362   7.2848   7.7764
     7.8294   8.6205  10.2385  10.2812  10.5706  10.6202

     occupation numbers 
     1.0000   1.0000   1.0000   1.0000   1.0000   1.0000   1.0000   1.0000
     1.0000   1.0144   1.0169  -0.0342  -0.0353  -0.0020  -0.0014  -0.0000
    -0.0000  -0.0000  -0.0000  -0.0000  -0.0000  -0.0000  -0.0000  -0.0000
    -0.0000  -0.0000  -0.0000  -0.0000  -0.0000  -0.0000

          k = 0.0400 0.0231 0.0000 (  4465 PWs)   bands (ev):

   -56.9628 -33.1183 -32.7225 -32.7190 -13.5480 -13.4828  -5.3893  -3.7788
    -2.9325  -1.2561  -1.1891  -0.4867  -0.4298  -0.1611  -0.0752   0.5079
     0.5536   1.0885   3.8899   4.4883   5.4182   5.6538   7.2966   7.8399
     7.8899   8.6331  10.1583  10.3240  10.4756  10.6660

     occupation numbers 
     1.0000   1.0000   1.0000   1.0000   1.0000   1.0000   1.0000   1.0000
     1.0000   1.0104   1.0199  -0.0133  -0.0335  -0.0056  -0.0016  -0.0000
    -0.0000  -0.0000  -0.0000  -0.0000  -0.0000  -0.0000  -0.0000  -0.0000
    -0.0000  -0.0000  -0.0000  -0.0000  -0.0000  -0.0000

          k = 0.0600 0.0346 0.0000 (  4453 PWs)   bands (ev):

   -56.9621 -33.1174 -32.7281 -32.7203 -13.5283 -13.4641  -5.3501  -3.7689
    -2.9038  -1.3086  -1.1584  -0.5887  -0.4610  -0.2725  -0.0917   0.4585
     0.5547   1.1243   3.9606   4.5203   5.4606   5.6830   7.3147   7.9408
     7.9869   8.6534  10.0406  10.3371  10.3949  10.6962

     occupation numbers 
     1.0000   1.0000   1.0000   1.0000   1.0000   1.0000   1.0000   1.0000
     1.0000   1.0055   1.0250   0.1106  -0.0257  -0.0186  -0.0021  -0.0000
    -0.0000  -0.0000  -0.0000  -0.0000  -0.0000  -0.0000  -0.0000  -0.0000
    -0.0000  -0.0000  -0.0000  -0.0000  -0.0000  -0.0000

          k = 0.0800 0.0462 0.0000 (  4453 PWs)   bands (ev):

   -56.9613 -33.1165 -32.7360 -32.7222 -13.5009 -13.4382  -5.2961  -3.7552
    -2.8642  -1.3832  -1.1167  -0.7285  -0.5027  -0.4094  -0.1128   0.3976
     0.5551   1.1632   4.0534   4.5651   5.5177   5.7239   7.3373   8.0708
     8.1124   8.6803   9.8992  10.1745  10.4922  10.6485

     occupation numbers 
     1.0000   1.0000   1.0000   1.0000   1.0000   1.0000   1.0000   1.0000
     1.0000   1.0019   1.0316   0.4810  -0.0022  -0.0353  -0.0029  -0.0000
    -0.0000  -0.0000  -0.0000  -0.0000  -0.0000  -0.0000  -0.0000  -0.0000
    -0.0000  -0.0000  -0.0000  -0.0000  -0.0000  -0.0000

          k = 0.1000 0.0577 0.0000 (  4457 PWs)   bands (ev):

   -56.9602 -33.1153 -32.7462 -32.7245 -13.4660 -13.4053  -5.2281  -3.7382
    -2.8145  -1.4809  -1.0659  -0.9020  -0.5595  -0.5534  -0.1364   0.3303
     0.5543   1.2006   4.1644   4.6225   5.5872   5.7763   7.3632   8.2162
     8.2536   8.7121   9.7552  10.0086  10.5889  10.6121

     occupation numbers 
     1.0000   1.0000   1.0000   1.0000   1.0000   1.0000   1.0000   1.0000
     1.0000   1.0004   1.0354   0.9266   0.0614   0.0526  -0.0040  -0.0000
    -0.0000  -0.0000  -0.0000  -0.0000  -0.0000  -0.0000  -0.0000  -0.0000
    -0.0000  -0.0000  -0.0000  -0.0000  -0.0000  -0.0000

          k = 0.1200 0.0693 0.0000 (  4464 PWs)   bands (ev):

   -56.9590 -33.1137 -32.7582 -32.7275 -13.4240 -13.3655  -5.1469  -3.7182
    -2.7558  -1.6031  -1.1035  -1.0089  -0.7111  -0.6116  -0.1595   0.2604
     0.5517   1.2340   4.2902   4.6923   5.6661   5.8401   7.3909   8.3533
     8.3863   8.7469   9.6345   9.8713  10.5234  10.7490

     occupation numbers 
     1.0000   1.0000   1.0000   1.0000   1.0000   1.0000   1.0000   1.0000
     1.0000   1.0000   1.0333   1.0259   0.4269   0.1572  -0.0054  -0.0000
    -0.0000  -0.0000  -0.0000  -0.0000  -0.0000  -0.0000  -0.0000  -0.0000
    -0.0000  -0.0000  -0.0000  -0.0000  -0.0000  -0.0000

          k = 0.1400 0.0808 0.0000 (  4460 PWs)   bands (ev):

   -56.9575 -33.1117 -32.7719 -32.7308 -13.3751 -13.3193  -5.0540  -3.6956
    -2.6902  -1.7507  -1.3271  -0.9495  -0.8531  -0.6753  -0.1770   0.1905
     0.5471   1.2622   4.4283   4.7744   5.7505   5.9151   7.4202   8.4408
     8.4742   8.7842   9.5742   9.8003  10.4609  10.8958

     occupation numbers 
     1.0000   1.0000   1.0000   1.0000   1.0000   1.0000   1.0000   1.0000
     1.0000   1.0000   1.0043   0.9874   0.8326   0.3204  -0.0068  -0.0000
    -0.0000  -0.0000  -0.0000  -0.0000  -0.0000  -0.0000  -0.0000  -0.0000
    -0.0000  -0.0000  -0.0000  -0.0000  -0.0000  -0.0000

          k = 0.1600 0.0924 0.0000 (  4466 PWs)   bands (ev):

   -56.9560 -33.1098 -32.7871 -32.7344 -13.3198 -13.2671  -4.9511  -3.6710
    -2.6215  -1.9223  -1.5668  -0.9764  -0.8943  -0.7434  -0.1822   0.1221
     0.5399   1.2847   4.5764   4.8685   5.8353   6.0010   7.4512   8.4357
     8.4791   8.8242   9.6064   9.8292  10.4123  11.0371

     occupation numbers 
     1.0000   1.0000   1.0000   1.0000   1.0000   1.0000   1.0000   1.0000
     1.0000   1.0000   1.0001   1.0094   0.9140   0.5271  -0.0072  -0.0000
    -0.0000  -0.0000  -0.0000  -0.0000  -0.0000  -0.0000  -0.0000  -0.0000
    -0.0000  -0.0000  -0.0000  -0.0000  -0.0000  -0.0000

          k = 0.1800 0.1039 0.0000 (  4470 PWs)   bands (ev):

   -56.9543 -33.1078 -32.8035 -32.7383 -13.2586 -13.2093  -4.8400  -3.6453
    -2.5560  -2.1121  -1.8170  -1.0737  -0.8514  -0.8141  -0.1665   0.0565
     0.5304   1.3014   4.7333   4.9743   5.9140   6.0972   7.4867   8.3440
     8.3984   8.8566   9.7163   9.9512  10.3945  10.9540

     occupation numbers 
     1.0000   1.0000   1.0000   1.0000   1.0000   1.0000   1.0000   1.0000
     1.0000   1.0000   1.0000   1.0354   0.8286   0.7357  -0.0060  -0.0002
    -0.0000  -0.0000  -0.0000  -0.0000  -0.0000  -0.0000  -0.0000  -0.0000
    -0.0000  -0.0000  -0.0000  -0.0000  -0.0000  -0.0000

          k = 0.2000 0.1155 0.0000 (  4482 PWs)   bands (ev):

   -56.9525 -33.1058 -32.8210 -32.7425 -13.1921 -13.1464  -4.7232  -3.6192
    -2.5146  -2.2991  -2.0726  -1.1387  -0.8862  -0.8282  -0.1224  -0.0052
     0.5185   1.3125   4.8978   5.0910   5.9794   6.2029   7.5309   8.2009
     8.2625   8.8659   9.8469  10.1076  10.4398  10.8455

     occupation numbers 
     1.0000   1.0000   1.0000   1.0000   1.0000   1.0000   1.0000   1.0000
     1.0000   1.0000   1.0000   1.0283   0.8997   0.7729  -0.0033  -0.0005
    -0.0000  -0.0000  -0.0000  -0.0000  -0.0000  -0.0000  -0.0000  -0.0000
    -0.0000  -0.0000  -0.0000  -0.0000  -0.0000  -0.0000

          k = 0.2200 0.1270 0.0000 (  4482 PWs)   bands (ev):

   -56.9506 -33.1032 -32.8391 -32.7468 -13.1211 -13.0793  -4.6032  -3.5940
    -2.6035  -2.3771  -2.3286  -1.1653  -0.9585  -0.8272  -0.0620  -0.0477
     0.5047   1.3188   5.0683   5.2176   6.0245   6.3167   7.5892   8.0366
     8.1037   8.8386   9.9429  10.2245  10.5920  10.8306

     occupation numbers 
     1.0000   1.0000   1.0000   1.0000   1.0000   1.0000   1.0000   1.0000
     1.0000   1.0000   1.0000   1.0239   0.9956   0.7703  -0.0013  -0.0010
    -0.0000  -0.0000  -0.0000  -0.0000  -0.0000  -0.0000  -0.0000  -0.0000
    -0.0000  -0.0000  -0.0000  -0.0000  -0.0000  -0.0000

          k = 0.2400 0.1386 0.0000 (  4478 PWs)   bands (ev):

   -56.9486 -33.1007 -32.8575 -32.7513 -13.0462 -13.0086  -4.4840  -3.5718
    -2.8058  -2.5801  -2.3625  -1.1484  -1.0299  -0.8448  -0.1131   0.0539
     0.4893   1.3211   5.2420   5.3526   6.0460   6.4359   7.6591   7.8679
     7.9480   8.7637   9.9910  10.3085  10.8180  10.9030

     occupation numbers 
     1.0000   1.0000   1.0000   1.0000   1.0000   1.0000   1.0000   1.0000
     1.0000   1.0000   1.0000   1.0267   1.0318   0.8134  -0.0029  -0.0002
    -0.0000  -0.0000  -0.0000  -0.0000  -0.0000  -0.0000  -0.0000  -0.0000
    -0.0000  -0.0000  -0.0000  -0.0000  -0.0000  -0.0000

          k = 0.2600 0.1501 0.0000 (  4484 PWs)   bands (ev):

   -56.9467 -33.0982 -32.8762 -32.7558 -12.9685 -12.9352  -4.3704  -3.5565
    -3.0196  -2.8205  -2.3521  -1.0993  -1.0875  -0.8751  -0.1584   0.1757
     0.4728   1.3208   5.4120   5.4931   6.0485   6.5556   7.6723   7.7070
     7.8773   8.6400  10.0228  10.3976  10.8680  10.9968

     occupation numbers 
     1.0000   1.0000   1.0000   1.0000   1.0000   1.0000   1.0000   1.0000
     1.0000   1.0000   1.0000   1.0337   1.0347   0.8789  -0.0054  -0.0000
    -0.0000  -0.0000  -0.0000  -0.0000  -0.0000  -0.0000  -0.0000  -0.0000
    -0.0000  -0.0000  -0.0000  -0.0000  -0.0000  -0.0000

          k = 0.2800 0.1617 0.0000 (  4504 PWs)   bands (ev):

   -56.9449 -33.0959 -32.8948 -32.7604 -12.8889 -12.8602  -4.2702  -3.5574
    -3.2234  -3.0381  -2.3552  -1.1661  -0.9871  -0.9130  -0.1973   0.3116
     0.4553   1.3200   5.5596   5.6339   6.0533   6.6663   7.5498   7.5683
     7.9779   8.4802  10.0595  10.5036  10.6911  11.0439

     occupation numbers 
     1.0000   1.0000   1.0000   1.0000   1.0000   1.0000   1.0000   1.0000
     1.0000   1.0000   1.0000   1.0237   1.0159   0.9433  -0.0087  -0.0000
    -0.0000  -0.0000  -0.0000  -0.0000  -0.0000  -0.0000  -0.0000  -0.0000
    -0.0000  -0.0000  -0.0000  -0.0000  -0.0000  -0.0000

          k = 0.3000 0.1732 0.0000 (  4522 PWs)   bands (ev):

   -56.9431 -33.0936 -32.9129 -32.7650 -12.8088 -12.7845  -4.1965  -3.5986
    -3.4010  -3.2065  -2.3670  -1.2294  -0.9543  -0.8561  -0.2297   0.4374
     0.4564   1.3217   5.6420   5.7646   6.1082   6.7514   7.4049   7.4731
     8.1384   8.3043  10.0954  10.5024  10.6254  11.0202

     occupation numbers 
     1.0000   1.0000   1.0000   1.0000   1.0000   1.0000   1.0000   1.0000
     1.0000   1.0000   1.0000   1.0137   0.9919   0.8392  -0.0124  -0.0000
    -0.0000  -0.0000  -0.0000  -0.0000  -0.0000  -0.0000  -0.0000  -0.0000
    -0.0000  -0.0000  -0.0000  -0.0000  -0.0000  -0.0000

          k = 0.3200 0.1848 0.0000 (  4518 PWs)   bands (ev):

   -56.9413 -33.0913 -32.9298 -32.7693 -12.7292 -12.7096  -4.1719  -3.7104
    -3.5292  -3.2932  -2.3806  -1.2885  -0.9965  -0.7054  -0.2553   0.4198
     0.6060   1.3304   5.6354   5.8648   6.2428   6.7986   7.2708   7.4422
     8.1386   8.3278  10.1060  10.3110  10.7535  10.9588

     occupation numbers 
     1.0000   1.0000   1.0000   1.0000   1.0000   1.0000   1.0000   1.0000
     1.0000   1.0000   1.0000   1.0071   1.0208   0.4098  -0.0160  -0.0000
    -0.0000  -0.0000  -0.0000  -0.0000  -0.0000  -0.0000  -0.0000  -0.0000
    -0.0000  -0.0000  -0.0000  -0.0000  -0.0000  -0.0000

          k = 0.3400 0.1963 0.0000 (  4514 PWs)   bands (ev):

   -56.9395 -33.0889 -32.9458 -32.7732 -12.6518 -12.6367  -4.2177  -3.8713
    -3.5867  -3.3178  -2.3899  -1.3429  -1.0376  -0.5468  -0.2748   0.4028
     0.7559   1.3516   5.5758   5.9004   6.4207   6.8330   7.1599   7.4533
     8.0210   8.5381  10.0607  10.1210  10.8570  10.9173

     occupation numbers 
     1.0000   1.0000   1.0000   1.0000   1.0000   1.0000   1.0000   1.0000
     1.0000   1.0000   1.0000   1.0035   1.0332   0.0435  -0.0190  -0.0000
    -0.0000  -0.0000  -0.0000  -0.0000  -0.0000  -0.0000  -0.0000  -0.0000
    -0.0000  -0.0000  -0.0000  -0.0000  -0.0000  -0.0000

          k = 0.3600 0.2078 0.0000 (  4504 PWs)   bands (ev):

   -56.9379 -33.0868 -32.9605 -32.7767 -12.5780 -12.5673  -4.3202  -4.0412
    -3.5869  -3.3184  -2.3912  -1.3919  -1.0761  -0.3923  -0.2889   0.3869
     0.9029   1.3925   5.4957   5.8423   6.5926   6.9035   7.0962   7.4368
     8.0075   8.7644   9.9373   9.9502  10.8533  10.9247

     occupation numbers 
     1.0000   1.0000   1.0000   1.0000   1.0000   1.0000   1.0000   1.0000
     1.0000   1.0000   1.0000   1.0017   1.0353  -0.0353  -0.0213  -0.0000
    -0.0000  -0.0000  -0.0000  -0.0000  -0.0000  -0.0000  -0.0000  -0.0000
    -0.0000  -0.0000  -0.0000  -0.0000  -0.0000  -0.0000

          k = 0.3800 0.2194 0.0000 (  4514 PWs)   bands (ev):

   -56.9365 -33.0852 -32.9738 -32.7800 -12.5095 -12.5028  -4.4446  -4.2016
    -3.5631  -3.3113  -2.3827  -1.4353  -1.1112  -0.2983  -0.2538   0.3721
     1.0419   1.4598   5.4106   5.6977   6.6852   7.0125   7.1438   7.3789
     8.1053   9.0019   9.7636   9.7990  10.6893  10.9560

     occupation numbers 
     1.0000   1.0000   1.0000   1.0000   1.0000   1.0000   1.0000   1.0000
     1.0000   1.0000   1.0000   1.0008   1.0323  -0.0229  -0.0157  -0.0000
    -0.0000  -0.0000  -0.0000  -0.0000  -0.0000  -0.0000  -0.0000  -0.0000
    -0.0000  -0.0000  -0.0000  -0.0000  -0.0000  -0.0000

          k = 0.4000 0.2309 0.0000 (  4522 PWs)   bands (ev):

   -56.9353 -33.0836 -32.9855 -32.7830 -12.4478 -12.4449  -4.5674  -4.3446
    -3.5362  -3.3024  -2.3651  -1.4727  -1.1420  -0.3039  -0.1409   0.3590
     1.1693   1.5580   5.3294   5.4988   6.6750   7.0864   7.3225   7.3756
     8.2646   9.2439   9.6054   9.6363  10.4429  10.9454

     occupation numbers 
     1.0000   1.0000   1.0000   1.0000   1.0000   1.0000   1.0000   1.0000
     1.0000   1.0000   1.0000   1.0004   1.0278  -0.0239  -0.0043  -0.0000
    -0.0000  -0.0000  -0.0000  -0.0000  -0.0000  -0.0000  -0.0000  -0.0000
    -0.0000  -0.0000  -0.0000  -0.0000  -0.0000  -0.0000

          k = 0.4200 0.2425 0.0000 (  4512 PWs)   bands (ev):

   -56.9342 -33.0820 -32.9951 -32.7854 -12.3950 -12.3946  -4.6768  -4.4661
    -3.5142  -3.2938  -2.3412  -1.5036  -1.1679  -0.3064  -0.0577   0.3481
     1.2812   1.6840   5.2575   5.2763   6.6298   7.0559   7.5056   7.5629
     8.4470   9.4674   9.4693   9.4827  10.1869  10.7971

     occupation numbers 
     1.0000   1.0000   1.0000   1.0000   1.0000   1.0000   1.0000   1.0000
     1.0000   1.0000   1.0000   1.0002   1.0234  -0.0243  -0.0012  -0.0000
    -0.0000  -0.0000  -0.0000  -0.0000  -0.0000  -0.0000  -0.0000  -0.0000
    -0.0000  -0.0000  -0.0000  -0.0000  -0.0000  -0.0000

          k = 0.4400 0.2540 0.0000 (  4506 PWs)   bands (ev):

   -56.9333 -33.0810 -33.0026 -32.7873 -12.3545 -12.3514  -4.7664  -4.5632
    -3.4987  -3.2865  -2.3158  -1.5279  -1.1885  -0.3072  -0.0027   0.3393
     1.3736   1.8252   5.0555   5.1982   6.5843   6.9952   7.6888   7.8274
     8.6227   9.3542   9.3593   9.5678  10.0507  10.5349

     occupation numbers 
     1.0000   1.0000   1.0000   1.0000   1.0000   1.0000   1.0000   1.0000
     1.0000   1.0000   1.0000   1.0001   1.0200  -0.0244  -0.0005  -0.0000
    -0.0000  -0.0000  -0.0000  -0.0000  -0.0000  -0.0000  -0.0000  -0.0000
    -0.0000  -0.0000  -0.0000  -0.0000  -0.0000  -0.0000

          k = 0.4600 0.2656 0.0000 (  4512 PWs)   bands (ev):

   -56.9327 -33.0802 -33.0084 -32.7887 -12.3246 -12.3195  -4.8328  -4.6340
    -3.4892  -3.2812  -2.2934  -1.5453  -1.2034  -0.3071   0.0295   0.3329
     1.4422   1.9594   4.8640   5.1538   6.5484   6.9438   7.8719   8.1006
     8.7417   9.2698   9.3121   9.3935  10.1885  10.2535

     occupation numbers 
     1.0000   1.0000   1.0000   1.0000   1.0000   1.0000   1.0000   1.0000
     1.0000   1.0000   1.0000   1.0001   1.0176  -0.0244  -0.0003  -0.0000
    -0.0000  -0.0000  -0.0000  -0.0000  -0.0000  -0.0000  -0.0000  -0.0000
    -0.0000  -0.0000  -0.0000  -0.0000  -0.0000  -0.0000

          k = 0.4800 0.2771 0.0000 (  4524 PWs)   bands (ev):

   -56.9324 -33.0798 -33.0120 -32.7895 -12.3063 -12.3000  -4.8735  -4.6770
    -3.4844  -3.2780  -2.2781  -1.5559  -1.2124  -0.3069   0.0457   0.3290
     1.4847   2.0583   4.7306   5.1264   6.5257   6.9114   8.0192   8.3611
     8.7585   9.1421   9.2176   9.3847  10.0025  10.4060

     occupation numbers 
     1.0000   1.0000   1.0000   1.0000   1.0000   1.0000   1.0000   1.0000
     1.0000   1.0000   1.0000   1.0001   1.0162  -0.0244  -0.0002  -0.0000
    -0.0000  -0.0000  -0.0000  -0.0000  -0.0000  -0.0000  -0.0000  -0.0000
    -0.0000  -0.0000  -0.0000  -0.0000  -0.0000  -0.0000

          k =-0.5000-0.2887 0.0000 (  4512 PWs)   bands (ev):

   -56.9322 -33.0797 -33.0128 -32.7897 -12.3002 -12.2934  -4.8871  -4.6914
    -3.4827  -3.2769  -2.2727  -1.5594  -1.2154  -0.3065   0.0507   0.3277
     1.4995   2.0953   4.6824   5.1177   6.5189   6.9005   8.0802   8.5080
     8.7423   8.9948   9.2000   9.4651   9.8733  10.5297

     occupation numbers 
     1.0000   1.0000   1.0000   1.0000   1.0000   1.0000   1.0000   1.0000
     1.0000   1.0000   1.0000   1.0001   1.0157  -0.0243  -0.0002  -0.0000
    -0.0000  -0.0000  -0.0000  -0.0000  -0.0000  -0.0000  -0.0000  -0.0000
    -0.0000  -0.0000  -0.0000  -0.0000  -0.0000  -0.0000

 ------ SPIN DOWN ----------


          k = 0.0000 0.0000 0.0000 (  4457 PWs)   bands (ev):

   -56.5480 -32.8642 -32.1446 -32.1446 -13.5950 -13.5323  -5.2047  -3.8081
    -2.6540  -0.6788  -0.6788  -0.3636  -0.3636   0.0821   0.0821   0.8937
     0.8937   1.2187   3.8860   4.4627   5.4364   5.6283   7.2841   7.7546
     7.8105   8.6152  10.2752  10.2752  10.6039  10.6039

     occupation numbers 
     1.0000   1.0000   1.0000   1.0000   1.0000   1.0000   1.0000   1.0000
     1.0000   0.3302   0.3302  -0.0330  -0.0330  -0.0001  -0.0001  -0.0000
    -0.0000  -0.0000  -0.0000  -0.0000  -0.0000  -0.0000  -0.0000  -0.0000
    -0.0000  -0.0000  -0.0000  -0.0000  -0.0000  -0.0000

          k = 0.0200 0.0115 0.0000 (  4465 PWs)   bands (ev):

   -56.5479 -32.8641 -32.1459 -32.1449 -13.5910 -13.5285  -5.1973  -3.8058
    -2.6476  -0.6967  -0.6760  -0.3862  -0.3698   0.0639   0.0820   0.8830
     0.8936   1.2276   3.9011   4.4691   5.4457   5.6342   7.2886   7.7761
     7.8304   8.6194  10.2473  10.2894  10.5694  10.6187

     occupation numbers 
     1.0000   1.0000   1.0000   1.0000   1.0000   1.0000   1.0000   1.0000
     1.0000   0.3834   0.3221  -0.0350  -0.0337  -0.0001  -0.0001  -0.0000
    -0.0000  -0.0000  -0.0000  -0.0000  -0.0000  -0.0000  -0.0000  -0.0000
    -0.0000  -0.0000  -0.0000  -0.0000  -0.0000  -0.0000

          k = 0.0400 0.0231 0.0000 (  4465 PWs)   bands (ev):

   -56.5476 -32.8636 -32.1493 -32.1458 -13.5792 -13.5173  -5.1753  -3.7989
    -2.6284  -0.7508  -0.6679  -0.4532  -0.3881   0.0129   0.0823   0.8531
     0.8935   1.2520   3.9453   4.4883   5.4735   5.6517   7.3013   7.8395
     7.8891   8.6320  10.1691  10.3328  10.4752  10.6644

     occupation numbers 
     1.0000   1.0000   1.0000   1.0000   1.0000   1.0000   1.0000   1.0000
     1.0000   0.5501   0.2992  -0.0283  -0.0351  -0.0004  -0.0001  -0.0000
    -0.0000  -0.0000  -0.0000  -0.0000  -0.0000  -0.0000  -0.0000  -0.0000
    -0.0000  -0.0000  -0.0000  -0.0000  -0.0000  -0.0000

          k = 0.0600 0.0346 0.0000 (  4453 PWs)   bands (ev):

   -56.5469 -32.8627 -32.1549 -32.1471 -13.5595 -13.4987  -5.1390  -3.7876
    -2.5968  -0.8411  -0.6562  -0.5623  -0.4178  -0.0615   0.0850   0.8071
     0.8932   1.2864   4.0154   4.5202   5.5185   5.6809   7.3204   7.9404
     7.9838   8.6523  10.0541  10.3374  10.4047  10.6921

     occupation numbers 
     1.0000   1.0000   1.0000   1.0000   1.0000   1.0000   1.0000   1.0000
     1.0000   0.8046   0.2670   0.0656  -0.0349  -0.0013  -0.0001  -0.0000
    -0.0000  -0.0000  -0.0000  -0.0000  -0.0000  -0.0000  -0.0000  -0.0000
    -0.0000  -0.0000  -0.0000  -0.0000  -0.0000  -0.0000

          k = 0.0800 0.0462 0.0000 (  4453 PWs)   bands (ev):

   -56.5461 -32.8618 -32.1627 -32.1490 -13.5323 -13.4729  -5.0889  -3.7719
    -2.5533  -0.9671  -0.7095  -0.6437  -0.4578  -0.1492   0.0931   0.7491
     0.8919   1.3247   4.1072   4.5648   5.5790   5.7216   7.3438   8.0703
     8.1071   8.6794   9.9159  10.1755  10.5037  10.6452

     occupation numbers 
     1.0000   1.0000   1.0000   1.0000   1.0000   1.0000   1.0000   1.0000
     1.0000   1.0027   0.4222   0.2340  -0.0268  -0.0048  -0.0001  -0.0000
    -0.0000  -0.0000  -0.0000  -0.0000  -0.0000  -0.0000  -0.0000  -0.0000
    -0.0000  -0.0000  -0.0000  -0.0000  -0.0000  -0.0000

          k = 0.1000 0.0577 0.0000 (  4457 PWs)   bands (ev):

   -56.5451 -32.8606 -32.1727 -32.1513 -13.4976 -13.4400  -5.0258  -3.7523
    -2.4984  -1.1262  -0.8896  -0.6340  -0.5067  -0.2420   0.1107   0.6830
     0.8895   1.3624   4.2167   4.6220   5.6525   5.7739   7.3696   8.2157
     8.2467   8.7120   9.7756  10.0100  10.5871  10.6263

     occupation numbers 
     1.0000   1.0000   1.0000   1.0000   1.0000   1.0000   1.0000   1.0000
     1.0000   1.0303   0.9059   0.2096   0.0009  -0.0140  -0.0001  -0.0000
    -0.0000  -0.0000  -0.0000  -0.0000  -0.0000  -0.0000  -0.0000  -0.0000
    -0.0000  -0.0000  -0.0000  -0.0000  -0.0000  -0.0000

          k = 0.1200 0.0693 0.0000 (  4464 PWs)   bands (ev):

   -56.5439 -32.8590 -32.1847 -32.1543 -13.4557 -13.4003  -4.9505  -3.7290
    -2.4334  -1.3135  -1.0968  -0.6312  -0.5631  -0.3343   0.1419   0.6126
     0.8853   1.3967   4.3405   4.6916   5.7358   5.8376   7.3966   8.3525
     8.3790   8.7483   9.6596   9.8725  10.5237  10.7676

     occupation numbers 
     1.0000   1.0000   1.0000   1.0000   1.0000   1.0000   1.0000   1.0000
     1.0000   1.0052   1.0340   0.2025   0.0668  -0.0289  -0.0000  -0.0000
    -0.0000  -0.0000  -0.0000  -0.0000  -0.0000  -0.0000  -0.0000  -0.0000
    -0.0000  -0.0000  -0.0000  -0.0000  -0.0000  -0.0000

          k = 0.1400 0.0808 0.0000 (  4460 PWs)   bands (ev):

   -56.5424 -32.8571 -32.1982 -32.1574 -13.4071 -13.3542  -4.8642  -3.7025
    -2.3603  -1.5228  -1.3249  -0.6378  -0.6254  -0.4221   0.1906   0.5403
     0.8793   1.4264   4.4761   4.7735   5.8246   5.9126   7.4243   8.4404
     8.4684   8.7886   9.6049   9.8002  10.4636  10.9217

     occupation numbers 
     1.0000   1.0000   1.0000   1.0000   1.0000   1.0000   1.0000   1.0000
     1.0000   1.0002   1.0045   0.2190   0.1887  -0.0345  -0.0000  -0.0000
    -0.0000  -0.0000  -0.0000  -0.0000  -0.0000  -0.0000  -0.0000  -0.0000
    -0.0000  -0.0000  -0.0000  -0.0000  -0.0000  -0.0000

          k = 0.1600 0.0924 0.0000 (  4466 PWs)   bands (ev):

   -56.5409 -32.8553 -32.2132 -32.1611 -13.3521 -13.3021  -4.7684  -3.6732
    -2.2833  -1.7465  -1.5681  -0.6921  -0.6554  -0.5017   0.2584   0.4680
     0.8709   1.4505   4.6215   4.8673   5.9133   5.9985   7.4533   8.4383
     8.4765   8.8325   9.6444   9.8276  10.4170  11.0753

     occupation numbers 
     1.0000   1.0000   1.0000   1.0000   1.0000   1.0000   1.0000   1.0000
     1.0000   1.0000   1.0001   0.3695   0.2649  -0.0030  -0.0000  -0.0000
    -0.0000  -0.0000  -0.0000  -0.0000  -0.0000  -0.0000  -0.0000  -0.0000
    -0.0000  -0.0000  -0.0000  -0.0000  -0.0000  -0.0000

          k = 0.1800 0.1039 0.0000 (  4470 PWs)   bands (ev):

   -56.5393 -32.8533 -32.2295 -32.1648 -13.2912 -13.2444  -4.6647  -3.6419
    -2.2150  -1.9698  -1.8212  -0.7618  -0.6834  -0.5687   0.3452   0.3970
     0.8605   1.4692   4.7755   4.9728   5.9952   6.0950   7.4865   8.3522
     8.3992   8.8699   9.7664   9.9511  10.3989  10.9985

     occupation numbers 
     1.0000   1.0000   1.0000   1.0000   1.0000   1.0000   1.0000   1.0000
     1.0000   1.0000   1.0000   0.5839   0.3437   0.0756  -0.0000  -0.0000
    -0.0000  -0.0000  -0.0000  -0.0000  -0.0000  -0.0000  -0.0000  -0.0000
    -0.0000  -0.0000  -0.0000  -0.0000  -0.0000  -0.0000

          k = 0.2000 0.1155 0.0000 (  4482 PWs)   bands (ev):

   -56.5376 -32.8513 -32.2468 -32.1689 -13.2251 -13.1818  -4.5552  -3.6094
    -2.2755  -2.0793  -2.0728  -0.8331  -0.7200  -0.6171   0.3289   0.4493
     0.8479   1.4823   4.9373   5.0893   6.0621   6.2012   7.5290   8.2154
     8.2660   8.8882   9.9178  10.1173  10.4369  10.8703

     occupation numbers 
     1.0000   1.0000   1.0000   1.0000   1.0000   1.0000   1.0000   1.0000
     1.0000   1.0000   1.0000   0.7851   0.4547   0.1695  -0.0000  -0.0000
    -0.0000  -0.0000  -0.0000  -0.0000  -0.0000  -0.0000  -0.0000  -0.0000
    -0.0000  -0.0000  -0.0000  -0.0000  -0.0000  -0.0000

          k = 0.2200 0.1270 0.0000 (  4482 PWs)   bands (ev):

   -56.5357 -32.8488 -32.2647 -32.1732 -13.1544 -13.1148  -4.4423  -3.5769
    -2.4991  -2.3377  -2.0224  -0.9048  -0.7631  -0.6396   0.2648   0.5684
     0.8335   1.4908   5.1054   5.2159   6.1065   6.3161   7.5868   8.0575
     8.1094   8.8760  10.0382  10.2492  10.5778  10.8304

     occupation numbers 
     1.0000   1.0000   1.0000   1.0000   1.0000   1.0000   1.0000   1.0000
     1.0000   1.0000   1.0000   0.9310   0.5879   0.2234  -0.0000  -0.0000
    -0.0000  -0.0000  -0.0000  -0.0000  -0.0000  -0.0000  -0.0000  -0.0000
    -0.0000  -0.0000  -0.0000  -0.0000  -0.0000  -0.0000

          k = 0.2400 0.1386 0.0000 (  4478 PWs)   bands (ev):

   -56.5338 -32.8463 -32.2828 -32.1776 -13.0799 -13.0443  -4.3293  -3.5461
    -2.7358  -2.5917  -1.9709  -0.9757  -0.8103  -0.6288   0.2054   0.7000
     0.8178   1.4957   5.2776   5.3513   6.1245   6.4376   7.6576   7.8952
     7.9558   8.8229  10.0975  10.3409  10.8006  10.8895

     occupation numbers 
     1.0000   1.0000   1.0000   1.0000   1.0000   1.0000   1.0000   1.0000
     1.0000   1.0000   1.0000   1.0089   0.7256   0.1968  -0.0000  -0.0000
    -0.0000  -0.0000  -0.0000  -0.0000  -0.0000  -0.0000  -0.0000  -0.0000
    -0.0000  -0.0000  -0.0000  -0.0000  -0.0000  -0.0000

          k = 0.2600 0.1501 0.0000 (  4484 PWs)   bands (ev):

   -56.5319 -32.8439 -32.3013 -32.1820 -13.0026 -12.9711  -4.2212  -3.5211
    -2.9651  -2.8350  -1.9377  -1.0449  -0.8599  -0.5807   0.1511   0.8011
     0.8416   1.4986   5.4482   5.4931   6.1200   6.5619   7.6749   7.7398
     7.8850   8.7247  10.1264  10.4342  10.9872  11.0168

     occupation numbers 
     1.0000   1.0000   1.0000   1.0000   1.0000   1.0000   1.0000   1.0000
     1.0000   1.0000   1.0000   1.0342   0.8476   0.0959  -0.0000  -0.0000
    -0.0000  -0.0000  -0.0000  -0.0000  -0.0000  -0.0000  -0.0000  -0.0000
    -0.0000  -0.0000  -0.0000  -0.0000  -0.0000  -0.0000

          k = 0.2800 0.1617 0.0000 (  4504 PWs)   bands (ev):

   -56.5301 -32.8416 -32.3198 -32.1866 -12.9236 -12.8963  -4.1265  -3.5122
    -3.1758  -3.0550  -1.9249  -1.1115  -0.9102  -0.4961   0.1026   0.7834
     0.9904   1.5020   5.6012   5.6370   6.1124   6.6820   7.5567   7.6033
     7.9859   8.5896  10.1577  10.5433  10.8551  11.0466

     occupation numbers 
     1.0000   1.0000   1.0000   1.0000   1.0000   1.0000   1.0000   1.0000
     1.0000   1.0000   1.0000   1.0323   0.9393  -0.0072  -0.0001  -0.0000
    -0.0000  -0.0000  -0.0000  -0.0000  -0.0000  -0.0000  -0.0000  -0.0000
    -0.0000  -0.0000  -0.0000  -0.0000  -0.0000  -0.0000

          k = 0.3000 0.1732 0.0000 (  4522 PWs)   bands (ev):

   -56.5284 -32.8394 -32.3376 -32.1912 -12.8438 -12.8209  -4.0626  -3.5517
    -3.3495  -3.2171  -1.9290  -1.1748  -0.9597  -0.3815   0.0601   0.7654
     1.1440   1.5098   5.6961   5.7753   6.1481   6.7852   7.4138   7.5021
     8.1491   8.4337  10.1928  10.6672  10.6812  11.0329

     occupation numbers 
     1.0000   1.0000   1.0000   1.0000   1.0000   1.0000   1.0000   1.0000
     1.0000   1.0000   1.0000   1.0223   0.9967  -0.0347  -0.0001  -0.0000
    -0.0000  -0.0000  -0.0000  -0.0000  -0.0000  -0.0000  -0.0000  -0.0000
    -0.0000  -0.0000  -0.0000  -0.0000  -0.0000  -0.0000

          k = 0.3200 0.1848 0.0000 (  4518 PWs)   bands (ev):

   -56.5266 -32.8370 -32.3544 -32.1953 -12.7648 -12.7463  -4.0605  -3.6790
    -3.4547  -3.2800  -1.9435  -1.2338  -1.0074  -0.2482   0.0242   0.7478
     1.2998   1.5272   5.6985   5.8934   6.2675   6.8570   7.2815   7.4559
     8.2802   8.3412  10.2079  10.5043  10.7957  10.9700

     occupation numbers 
     1.0000   1.0000   1.0000   1.0000   1.0000   1.0000   1.0000   1.0000
     1.0000   1.0000   1.0000   1.0131   1.0254  -0.0149  -0.0003  -0.0000
    -0.0000  -0.0000  -0.0000  -0.0000  -0.0000  -0.0000  -0.0000  -0.0000
    -0.0000  -0.0000  -0.0000  -0.0000  -0.0000  -0.0000

          k = 0.3400 0.1963 0.0000 (  4514 PWs)   bands (ev):

   -56.5249 -32.8347 -32.3702 -32.1992 -12.6879 -12.6736  -4.1382  -3.8531
    -3.4733  -3.2830  -1.9622  -1.2882  -1.0522  -0.1091  -0.0055   0.7308
     1.4543   1.5610   5.6408   5.9666   6.4375   6.9041   7.1728   7.4583
     8.1600   8.5537  10.1648  10.3285  10.8946  10.9206

     occupation numbers 
     1.0000   1.0000   1.0000   1.0000   1.0000   1.0000   1.0000   1.0000
     1.0000   1.0000   1.0000   1.0071   1.0349  -0.0027  -0.0005  -0.0000
    -0.0000  -0.0000  -0.0000  -0.0000  -0.0000  -0.0000  -0.0000  -0.0000
    -0.0000  -0.0000  -0.0000  -0.0000  -0.0000  -0.0000

          k = 0.3600 0.2078 0.0000 (  4504 PWs)   bands (ev):

   -56.5233 -32.8327 -32.3847 -32.2026 -12.6145 -12.6044  -4.2648  -4.0298
    -3.4362  -3.2683  -1.9803  -1.3373  -1.0934  -0.0298   0.0219   0.7150
     1.6049   1.6189   5.5605   5.9671   6.6029   6.9648   7.1128   7.4590
     8.1186   8.7819  10.0451  10.1584  10.8775  10.9256

     occupation numbers 
     1.0000   1.0000   1.0000   1.0000   1.0000   1.0000   1.0000   1.0000
     1.0000   1.0000   1.0000   1.0038   1.0343  -0.0008  -0.0003  -0.0000
    -0.0000  -0.0000  -0.0000  -0.0000  -0.0000  -0.0000  -0.0000  -0.0000
    -0.0000  -0.0000  -0.0000  -0.0000  -0.0000  -0.0000

          k = 0.3800 0.2194 0.0000 (  4514 PWs)   bands (ev):

   -56.5220 -32.8311 -32.3979 -32.2059 -12.5464 -12.5402  -4.4030  -4.1939
    -3.3803  -3.2497  -1.9943  -1.3808  -1.1303  -0.0489   0.1331   0.7002
     1.7073   1.7468   5.4750   5.8881   6.6904   7.0535   7.1638   7.4280
     8.1815   9.0212   9.8758   9.9972  10.7045  10.9610

     occupation numbers 
     1.0000   1.0000   1.0000   1.0000   1.0000   1.0000   1.0000   1.0000
     1.0000   1.0000   1.0000   1.0020   1.0296  -0.0011  -0.0000  -0.0000
    -0.0000  -0.0000  -0.0000  -0.0000  -0.0000  -0.0000  -0.0000  -0.0000
    -0.0000  -0.0000  -0.0000  -0.0000  -0.0000  -0.0000

          k = 0.4000 0.2309 0.0000 (  4522 PWs)   bands (ev):

   -56.5208 -32.8295 -32.4095 -32.2089 -12.4852 -12.4825  -4.5338  -4.3390
    -3.3240  -3.2313  -2.0025  -1.4182  -1.1624  -0.0633   0.2169   0.6872
     1.8276   1.8765   5.3936   5.7499   6.6799   7.1120   7.3415   7.4368
     8.3196   9.2650   9.6919   9.8499  10.4547  10.9588

     occupation numbers 
     1.0000   1.0000   1.0000   1.0000   1.0000   1.0000   1.0000   1.0000
     1.0000   1.0000   1.0000   1.0011   1.0244  -0.0013  -0.0000  -0.0000
    -0.0000  -0.0000  -0.0000  -0.0000  -0.0000  -0.0000  -0.0000  -0.0000
    -0.0000  -0.0000  -0.0000  -0.0000  -0.0000  -0.0000

          k = 0.4200 0.2425 0.0000 (  4512 PWs)   bands (ev):

   -56.5197 -32.8280 -32.4189 -32.2112 -12.4328 -12.4324  -4.6480  -4.4618
    -3.2752  -3.2150  -2.0048  -1.4491  -1.1892  -0.0736   0.2731   0.6763
     1.9726   1.9903   5.3216   5.5797   6.6355   7.0811   7.5601   7.5800
     8.4926   9.4926   9.5162   9.7213  10.1963  10.8157

     occupation numbers 
     1.0000   1.0000   1.0000   1.0000   1.0000   1.0000   1.0000   1.0000
     1.0000   1.0000   1.0000   1.0006   1.0199  -0.0016  -0.0000  -0.0000
    -0.0000  -0.0000  -0.0000  -0.0000  -0.0000  -0.0000  -0.0000  -0.0000
    -0.0000  -0.0000  -0.0000  -0.0000  -0.0000  -0.0000

          k = 0.4400 0.2540 0.0000 (  4506 PWs)   bands (ev):

   -56.5188 -32.8270 -32.4263 -32.2130 -12.3925 -12.3895  -4.7406  -4.5598
    -3.2369  -3.2017  -2.0028  -1.4735  -1.2104  -0.0807   0.3062   0.6676
     2.0843   2.1267   5.2624   5.4022   6.5907   7.0184   7.7401   7.8431
     8.6650   9.3711   9.5910   9.6156  10.0608  10.5514

     occupation numbers 
     1.0000   1.0000   1.0000   1.0000   1.0000   1.0000   1.0000   1.0000
     1.0000   1.0000   1.0000   1.0004   1.0165  -0.0018  -0.0000  -0.0000
    -0.0000  -0.0000  -0.0000  -0.0000  -0.0000  -0.0000  -0.0000  -0.0000
    -0.0000  -0.0000  -0.0000  -0.0000  -0.0000  -0.0000

          k = 0.4600 0.2656 0.0000 (  4512 PWs)   bands (ev):

   -56.5182 -32.8262 -32.4321 -32.2144 -12.3628 -12.3578  -4.8088  -4.6310
    -3.2099  -3.1920  -1.9987  -1.4910  -1.2257  -0.0853   0.3230   0.6612
     2.1541   2.2670   5.2181   5.2442   6.5552   6.9635   7.9275   8.1152
     8.7769   9.3103   9.4114   9.5366  10.2054  10.2657

     occupation numbers 
     1.0000   1.0000   1.0000   1.0000   1.0000   1.0000   1.0000   1.0000
     1.0000   1.0000   1.0000   1.0003   1.0143  -0.0019  -0.0000  -0.0000
    -0.0000  -0.0000  -0.0000  -0.0000  -0.0000  -0.0000  -0.0000  -0.0000
    -0.0000  -0.0000  -0.0000  -0.0000  -0.0000  -0.0000

          k = 0.4800 0.2771 0.0000 (  4524 PWs)   bands (ev):

   -56.5180 -32.8258 -32.4357 -32.2152 -12.3446 -12.3384  -4.8505  -4.6743
    -3.1941  -3.1862  -1.9951  -1.5016  -1.2350  -0.0880   0.3302   0.6573
     2.1973   2.3671   5.1326   5.1908   6.5327   6.9284   8.0857   8.3748
     8.7704   9.1582   9.3895   9.4876  10.0084  10.4277

     occupation numbers 
     1.0000   1.0000   1.0000   1.0000   1.0000   1.0000   1.0000   1.0000
     1.0000   1.0000   1.0000   1.0002   1.0130  -0.0020  -0.0000  -0.0000
    -0.0000  -0.0000  -0.0000  -0.0000  -0.0000  -0.0000  -0.0000  -0.0000
    -0.0000  -0.0000  -0.0000  -0.0000  -0.0000  -0.0000

          k =-0.5000-0.2887 0.0000 (  4512 PWs)   bands (ev):

   -56.5177 -32.8257 -32.4364 -32.2154 -12.3384 -12.3319  -4.8645  -4.6888
    -3.1888  -3.1841  -1.9935  -1.5051  -1.2381  -0.0886   0.3324   0.6560
     2.2124   2.4040   5.0921   5.1822   6.5260   6.9166   8.1549   8.5211
     8.7393   9.0109   9.4711   9.4794   9.8724  10.5554

     occupation numbers 
     1.0000   1.0000   1.0000   1.0000   1.0000   1.0000   1.0000   1.0000
     1.0000   1.0000   1.0000   1.0002   1.0126  -0.0020  -0.0000  -0.0000
    -0.0000  -0.0000  -0.0000  -0.0000  -0.0000  -0.0000  -0.0000  -0.0000
    -0.0000  -0.0000  -0.0000  -0.0000  -0.0000  -0.0000

     the Fermi energy is    -0.7346 ev
     (compare with:    -0.7296 eV, computed in scf)

     Writing output data file ./tmp/NbS2.save/

     init_run     :      3.92s CPU      4.35s WALL (       1 calls)
     electrons    :    124.48s CPU    125.80s WALL (       1 calls)

     Called by init_run:
     wfcinit      :      0.00s CPU      0.00s WALL (       1 calls)
     wfcinit:atom :      0.04s CPU      0.04s WALL (      52 calls)
     wfcinit:wfcr :      4.39s CPU      4.52s WALL (      52 calls)
     potinit      :      1.25s CPU      1.36s WALL (       1 calls)
     hinit0       :      1.18s CPU      1.20s WALL (       1 calls)

     Called by electrons:
     c_bands      :    124.48s CPU    125.80s WALL (       1 calls)
     v_of_rho     :      1.06s CPU      1.16s WALL (       1 calls)
     v_h          :      0.05s CPU      0.06s WALL (       1 calls)
     v_xc         :      1.01s CPU      1.10s WALL (       1 calls)
     newd         :      1.33s CPU      1.60s WALL (       1 calls)

     Called by c_bands:
     init_us_2    :      0.05s CPU      0.06s WALL (      52 calls)
     cegterg      :    119.68s CPU    120.83s WALL (     156 calls)

     Called by sum_band:

     Called by *egterg:
     cdiaghg      :      3.68s CPU      3.68s WALL (    2631 calls)
     cegterg:over :     14.00s CPU     14.04s WALL (    2579 calls)
     cegterg:upda :      7.46s CPU      7.47s WALL (    2579 calls)
     cegterg:last :     22.86s CPU     22.88s WALL (    1272 calls)
     h_psi        :     67.25s CPU     68.44s WALL (    2787 calls)
     s_psi        :      4.26s CPU      4.28s WALL (    2787 calls)
     g_psi        :      0.33s CPU      0.33s WALL (    2579 calls)

     Called by h_psi:
     h_psi:calbec :      6.28s CPU      6.42s WALL (    2787 calls)
     vloc_psi     :     56.35s CPU     57.39s WALL (    2787 calls)
     add_vuspsi   :      4.18s CPU      4.19s WALL (    2787 calls)

     General routines
     calbec       :      6.27s CPU      6.41s WALL (    2787 calls)
     fft          :      0.86s CPU      0.91s WALL (      23 calls)
     ffts         :      0.00s CPU      0.00s WALL (       2 calls)
     fftw         :     51.35s CPU     52.30s WALL (   77730 calls)
     interpolate  :      0.08s CPU      0.09s WALL (       2 calls)
     davcio       :      0.04s CPU      0.06s WALL (     104 calls)

     Parallel routines
     fft_scatt_xy :      5.50s CPU      5.60s WALL (   77755 calls)
     fft_scatt_yz :      8.56s CPU      8.73s WALL (   77755 calls)

     PWSCF        :   2m 9.47s CPU   2m11.35s WALL


   This run was terminated on:  21:56:32  28Jan2021            

=------------------------------------------------------------------------------=
   JOB DONE.
=------------------------------------------------------------------------------=
